496
Lattice="19.416418090592277 -0.00019985903890651339 0.00030635760380373894 -0.0002559531792281031 24.866619788499143 0.0004634611931055209 0.0003322911090471554 0.00039252366537831975 21.061362450403415" Properties=species:S:1:pos:R:3:forces:R:3 energy=-3314177.4418405243 free_energy=-3314177.4418405243 pbc="T T T"
P       12.39065909       7.24315428       6.70671584       0.13530957      -0.40815648       0.04164354
S       14.31192575       8.10504074       6.32800669       0.27649274      -0.56586129      -0.06263826
S       12.21186092       5.41472527       5.68149267       0.55476460       0.29159398      -0.34561933
S       12.32570989       6.88257994       8.81368347       0.35569279      -0.25020098      -0.05354807
S       10.32755133       8.04581834       6.67291297       0.35966286      -0.45489255      -0.17521370
P        2.00217962      12.76345858       5.99329401      -0.60441652       0.04402618       0.10477507
S        0.88196109      14.43852255       5.49727890      -0.33987322      -0.24343189       0.35897945
S        3.69232823      11.94139114       5.08294514      -0.60047759       0.26650197      -0.40132607
S        3.03813748      13.82149270       7.60690497      -0.00112684      -0.42179920       0.09835690
S        0.53907716      11.30649493       6.70188251      -0.08790437      -0.19485444       0.27318702
P        7.03111937      22.04977487      14.72808892      -0.13785112       0.23671689      -0.09383786
S        5.59205158      23.58329682      14.40171609       0.07639837       0.04725224       0.24484458
S        8.56887657      22.34875132      13.30236693      -0.43810269       0.47481048       0.00399923
S        8.83506034      21.78882246      16.21109433       0.11595216      -0.11996229       0.27843507
S        5.40627874      20.70585183      15.35785070       0.83230014       0.43663197      -0.56521134
P       16.85674954       2.91485820       2.55755992      -0.20964945       0.59108736       0.17907218
S       17.08613489       3.87897563       0.80644899       0.33665483       0.10621502       0.36451126
S       16.05902152       1.10734729       1.92470687       0.13236207       0.27427599       0.23140495
S       18.56334147       2.33004998       3.49422368      -0.23942231       0.38457364       0.24170552
S       15.99525493       4.25501487       4.01093426      -0.39613552      -0.02668297       0.31388861
P       16.77919946      17.18860835      14.40139448      -0.18533877      -0.07419492      -0.09868759
S       16.49750320      19.22073324      14.71331731       0.20119686      -0.11676832       0.51424687
S       17.13384543      17.01750291      12.34086687      -0.59410852      -0.26476730       0.07751419
S       18.45021930      17.06315997      15.59647523      -0.12194688       0.01705690      -0.14892750
S       15.28330572      15.99983066      15.37553293       0.04321101      -0.07328273       0.03340405
P       17.16508977      22.57224711      15.10020807       0.03329272       0.18661371       0.19163063
S       17.52835494      24.30881309      14.00564804       0.21262056      -0.35523232       0.19113178
S       15.46596289      21.59368827      14.28051115      -0.10719565       0.63213466       0.14209698
S       19.08909348      21.64524896      14.85747529      -0.50517387      -0.23406086       0.48040920
S       16.55103051      22.58865702      17.01669106       0.28878471       0.12196601       0.13375779
P       12.16932850      17.59739425       6.12047922       0.09699224      -0.31854514      -0.13385779
S       12.10261356      18.16220780       4.07672854       0.10700005       0.21015216      -0.16048479
S       10.33629378      16.52637378       6.05540473       0.26052488       0.33922618      -0.29051213
S       13.50900827      16.13192249       6.67288760      -0.25749809      -0.00217403       0.29648610
S       11.91742725      19.17679599       7.45778368       0.24378166      -0.47941393      -0.34662947
P        7.35923677      22.30511941       2.14865213       0.39024511      -0.39358136      -0.35814657
S        6.44858680      23.21932866       0.51373988       0.36492665       0.08681162      -0.14123700
S        6.44138466      20.46225114       2.09617266       0.06750264      -0.04205579      -0.43506593
S        9.41048482      21.87575923       2.22750836       0.38925542      -0.24346298      -0.50915482
S        6.66641134      23.69576274       3.55095204       0.17270650       0.20003710      -0.53961364
P        2.63989773      12.02159587      14.54894061      -0.53111754      -0.07548351      -0.10584059
S        4.68834114      13.19116922      14.21803277      -0.18491270      -0.42636957      -0.30759899
S        1.79045507       9.99600565      14.21082991       0.27021510       0.04124360      -0.60613557
S        2.90317163      11.19574479      16.45042989       0.26252781      -0.08880828      -0.23318583
S        1.20505982      13.40593983      14.36789308      -0.05121633       0.20887554       0.28254958
P        7.23093937       2.74956682       6.27630165       0.23502144      -0.26481280       0.06830069
S        7.11280139       3.59281329       4.31664204       0.04812741      -0.38037619      -0.10148414
S        6.99364741       0.73737466       6.42941832       0.33498787       0.11934087      -0.51280481
S        9.67545171       3.54853253       6.56057380      -0.31650319      -0.24879122       0.22721455
S        5.39794443       3.60738807       6.83489845       0.16155745      -0.49338535       0.10067840
P        2.58920417      12.62671136      18.95641000       0.23580114      -0.03934383      -0.05922760
S        3.54656912      14.24295476      17.58981891      -0.30190238      -0.63649803       0.21685063
S        1.20884689      11.06113155      18.85684568       0.06996556       0.01587624      -0.19281169
S        4.07820744      12.17965271      20.28799181       0.15041804      -0.02553412       0.06668818
S        1.14778377      13.72304346      19.98694859       0.41320523       0.43367571       0.11697736
P       16.71035929      22.23116525       1.94649800      -0.56440863      -0.16380546      -0.20668640
S       17.41636198      22.39977409       0.04221640      -0.17929196       0.16017483      -0.02271314
S       17.49008353      20.62647411       2.99960164      -0.24608827      -0.10234436      -0.62432166
S       17.49016761      24.03560239       2.64833757      -0.44947236       0.48808883      -0.64922473
S       14.71389985      22.34413651       2.18826412      -0.40389081      -0.20765218      -0.20851830
P        2.39134420       2.13438472      10.96263545       0.00214679      -0.13928800       0.09388349
S        2.37260863       3.78556649      12.25718864      -0.40330832      -0.31634733       0.22100870
S        2.91602453       2.73526737       8.95662303       0.06030702      -0.62994708       0.12545902
S        3.61257469       0.82745083      11.96628058       0.31630219       0.22312125       0.32462019
S        0.62384346       1.15801417      10.54368114       0.31870509       0.22542416       0.38709342
P       17.02388300      12.14789334       2.53777675       0.03739378      -0.01213839      -0.15218063
S       15.33035023      13.21990834       1.95134510       0.09395617      -0.20982858       0.27263491
S       17.58377895      10.56155527       1.15765273       0.23269844      -0.08333330       1.17924653
S       18.26794902      13.78496866       2.65331138       0.00137155      -0.12258362      -0.16319254
S       16.67558765      11.35034216       4.48855841       0.73784606      -0.26613692      -0.82595596
P       17.04215636       2.83692123      10.81030483      -0.05360609      -0.06285962       0.00550660
S       17.78102321       3.35793445       8.91509239      -0.33062523       0.50807012       0.29103620
S       16.20839169       1.01739633      10.77446662       0.14587680       0.02208584       0.03915074
S       18.36790464       3.07874327      12.32834026      -0.30035493       0.31540969      -0.14758959
S       15.48258932       4.32798773      11.05982488      -0.17034475      -0.22333779       0.23388607
P       17.43916617      11.96192538      18.89881918      -0.55771285       0.22151114      -0.15080608
S       18.29367389      13.39430035      17.60969061      -0.10849294      -0.49809804       0.17734576
S       17.88569374       9.90678227      18.54766629      -0.68016766       0.32194812      -0.19901076
S       17.97426716      12.75029215      20.67052268      -0.12469159       0.40177140      -0.35777277
S       15.30137675      11.89671945      18.80488693       0.24527881       0.10682034       0.13979209
P       11.82524859      12.92424985       1.88247457      -0.35553081       0.47608151       0.46592561
S       12.48839115      14.78879575       1.01611449      -0.35417335       0.01443848      -0.11981722
S        9.87447333      12.05334642       1.65421434      -0.21335150       0.95304593       0.24417373
S       13.00048144      11.22709296       2.11850051      -0.31550256       0.09407766      -0.24866401
S       11.40043085      13.83435212       3.72963273       0.70769661      -0.25847304       0.17751338
P        2.09570792      17.09466460      10.24577190      -0.14432462      -0.00449716       0.22190302
S        0.45828538      16.26359218      11.09449432       0.18801917       0.05698886      -0.16950340
S        1.89613092      17.23382812       8.16718604      -0.13353432       0.29286704       0.42153046
S        2.56789630      18.90799427      10.88922991      -0.10343119      -0.04826049       0.42356676
S        3.84572274      15.94765684      10.39511607      -0.49842456       0.18939484       0.18208621
P        2.51492780       2.19850991       2.12176588      -0.03721562      -0.35043262      -0.03273034
S        4.02122017       1.51888182       0.93463903      -0.15462274      -0.27355724      -0.10853229
S        0.82028466       1.40314892       1.44114533      -0.08694210       0.11673535      -0.17508996
S        2.82020061       1.92862421       4.34026219      -0.35289325      -0.30102601      -0.06031211
S        2.82709690       4.23192665       2.21967064       0.15848683      -0.36255436      -0.31187337
P       11.68115523      23.07466466      14.99662190       0.04620989       0.31738381      -0.27562698
S       10.40920185      24.46141974      14.13197882       0.05301793       0.10933232       0.40296306
S       13.47990382      23.97585448      14.81455776       0.43566621       0.09234153      -0.28028073
S       11.97114188      22.57167723      17.31668428       0.78805862       0.09359560      -0.43091016
S       11.43232661      20.92944846      14.46167734       0.60723559       0.17322826      -0.18138180
P        2.23612241      22.42525067      10.97261937      -0.43709677       0.35847184       0.39761303
S        0.65941718      21.23758901      10.39742052      -0.01680341      -0.24599742       0.33741416
S        2.50457131      23.83255951       9.55684970       0.04752181      -0.32431193      -0.00669932
S        2.03800680      23.12271616      12.91040104       0.04375353       0.27758733       0.01598337
S        3.91693686      21.26642478      10.95955969      -0.09308441       0.03714396       0.20032880
P        6.77100001       2.85817806      19.27363609       0.06987248       0.24671663       0.13660493
S        8.47477463       4.05504715      19.46200368      -0.58657426       0.47257510       0.00167009
S        5.81437902       3.39567856      17.56722928      -0.33434550      -0.23417573       0.31921356
S        7.39196229       0.89917738      19.26650191      -0.10050455       0.56895340       0.57805558
S        5.74608630       3.23842755      20.98518931       0.43417105       0.50552479      -0.16735895
P        7.83138413      22.19967705       6.00606181       0.49397452       0.08945264       0.14244408
S        9.23178816      23.37087895       4.94471460       0.55445860       0.45836034       0.15928671
S        7.30441919      20.42900422       4.94012207       0.05250521       0.25987185      -0.27447148
S        9.33417979      22.79578005       7.45943862      -0.45043608       0.37990030       0.01603766
S        5.77221445      22.41864800       6.58597135       0.64031280       0.45108865      -0.01559751
P       12.50039094      12.18065410       6.67988201      -0.07475408       0.02339929       0.39271848
S       14.33541124      12.82053235       5.90310606      -0.44188199       0.11126676       0.39293758
S       11.63299307      10.78823885       5.50615477       0.14448526       0.16962383       0.22755780
S       12.88154299      11.40345366       8.61187337       0.39175963      -0.26557565       0.46657364
S       10.94152674      13.46161497       7.03955517       0.54891440      -0.28311203       0.85630554
P        7.41056701      12.14049432       6.18721332      -0.18259504       0.04261493       0.04446736
S        5.74756552      13.11829285       6.96615387      -0.10298564      -0.21930757      -0.16552673
S        7.39386584      10.76963517       4.63413194       0.39206674      -0.16340047       0.68041424
S        8.30387768      13.82091259       5.30984632      -0.27393723       0.03697689       0.02033275
S        8.01079284      11.15569299       7.96245799      -0.17467917       0.23597091       0.13087804
P        2.48404060       7.24758901      10.69956749      -0.26713944      -0.29995916       0.09757742
S        4.09620716       8.43863069       9.96526215      -0.27268433      -0.43340860       0.04015431
S        2.03041489       5.71512818       9.45218027      -0.45679413      -0.33998851       0.75859501
S        2.95170805       6.72706162      12.74488466       0.14446462       0.60604856      -0.12754001
S        0.33365176       8.34917399      10.52872863      -0.08440266       0.21054695      -0.14146153
P        2.35856030      22.68823307       1.78069134      -0.49365009       0.47748416       1.31149947
S        2.99861406      22.05580998       0.07575944       0.48603341      -0.39026020      -1.41072416
S        0.42275687      22.77553243       2.15414395       0.27775129       0.67154532      -0.15962301
S        3.72124087      20.49183314       3.36347744      -0.05914845       0.08986468      -0.14996535
S        3.41132920      24.17493362       2.68847059       0.23449888      -0.63836570       0.11054520
P        7.44959312      17.54891544       6.08366213      -0.01444835      -0.15537388      -0.09430412
S        8.65570979      19.14176875       6.80839976      -0.98253755      -0.13743166       0.19110359
S        7.69438102      16.96822835       4.04866475       0.44332579       0.04190394      -0.10138037
S        7.75202688      16.04567863       7.74178073      -0.21371526       0.07177986       0.10732446
S        5.33070180      17.47871890       6.21826960       0.02231983       0.08942302      -0.36187906
P       12.01933101      17.62429475      14.79274575      -0.31877561      -0.06296616      -0.02043566
S       11.00015272      17.67921539      12.94296040       0.37171754       0.16129584      -0.27390210
S       11.40669364      18.13439973      16.81186108      -0.01698385       0.26017605       0.02463010
S       11.95361862      15.40267679      14.99149093       0.41712774       0.00987230      -0.41130569
S       13.79296980      18.55743555      14.45662635      -0.20497227      -0.37505609       0.21861422
P       11.97508044       7.13445866      19.10068038       0.05886792      -0.05308747      -0.03331425
S       11.92663617       9.17227681      19.36370238       0.33202100       0.10993305      -1.14355031
S       13.04828828       7.04638328      17.18530848      -0.42615024      -0.14478148      -0.08082566
S       13.68783085       6.30492951      20.00925679      -0.12729707       0.40876211       0.07824253
S        9.86177171       6.78877061      18.82966204       0.57168476       0.07708651       0.18076637
P        2.18618577      22.53495979       6.80673582      -0.02597643       0.01868553      -0.23366713
S        2.23910162      21.72380201       4.89190134       0.13351738       0.23119450       0.18409470
S        2.96300885      20.27409246       7.53784236       0.01479970       0.54948668       0.30396548
S        3.56362367      24.10084987       6.69021956       0.20374898       0.08604370       0.26513824
S        0.50485677      23.61181673       6.93061789       0.30334920      -0.07183668       0.12903045
P       16.71079412      12.31043366      14.01628851      -0.18255572      -0.03794615      -0.32998165
S       14.75250677      12.10909896      13.25189172       0.13061065       0.32797757      -0.45041260
S       18.12855073      11.19390732      13.12163841      -1.14931289      -0.39067928      -0.43479932
S       17.49651547      14.19874549      13.98264626      -0.18021464      -0.42900945      -0.46122775
S       16.44315748      11.66298635      15.97990837       0.15374952       0.35579091      -0.76141423
P       17.19287701       2.24772519      18.72948478       0.23990292      -0.16931972      -0.76102287
S       17.04469642       4.32378909      18.83396172      -0.13323818      -0.04509920       0.18333431
S       17.06994235       1.95908958      16.51213008       0.44407416      -0.05911428       0.39328414
S       18.75012372       1.46641983      19.71743004       0.17239095       0.10161213      -0.26232029
S       15.59866878       1.35414193      19.58243555       0.38880565      -0.39812619      -0.16418112
P        7.56996159       2.93172987      14.96339258       0.26788266      -0.17735387      -0.17047396
S        9.31566064       2.63867739      13.75108476       0.45208332      -0.16149649       0.40981742
S        6.25081046       1.39965636      14.86562926       0.25354604       0.08814562      -0.26025182
S        9.17707725       2.94053123      16.35663069      -0.71156905       0.27905449       0.13338398
S        6.09333112       4.85765530      14.59058824      -0.60548132       0.19455408       0.41078478
P        2.36599873      17.88496454      14.77000574      -0.39907751       0.02931467      -0.13107491
S        1.17496136      19.31009108      13.89661205      -0.09771924      -0.40933851      -0.09797090
S        3.37669579      16.62944639      13.33282486      -0.28503781       0.16330647       0.04452193
S        3.60363236      19.28773367      15.65562990      -0.47140570      -0.08334260       0.23333154
S        1.52773553      16.19175329      15.68140500      -0.02053077       0.00878006       0.08658925
P        7.39505541      21.96721576      18.75697837      -0.21719012      -0.22291338       0.00035005
S        7.71706993      23.59429982      17.27428730      -0.44874684       0.17783282      -0.03865239
S        7.51129909      19.86071635      18.49900198      -0.03383403      -0.06168741       0.21064469
S        8.81479165      22.42207709      20.17452816       0.03776989      -0.38744663       0.04395882
S        5.26564222      22.23106805      18.87621530       0.21404242       0.18091123       0.28971603
P       16.59855783      17.85563617      19.47050307       0.22772845      -0.05713295      -0.59072971
S       17.18235334      19.60234749      18.39634374       0.49111215      -1.26460701      -0.73105941
S       16.79876247      16.02050985      18.63568155      -0.28480537      -0.24278362      -0.43232531
S       17.75591491      17.73026169      21.05940039       0.08069207       0.33700227       1.22653982
S       14.52107495      18.17382876      19.71331468      -0.32900529       0.14951178       0.21309398
P        7.64510049      16.87273929      15.24836624      -0.31606381      -0.27480842       0.25048621
S        8.07854989      18.72959717      14.34242892      -0.24995331      -0.52634693       0.28607483
S        7.92541477      15.29368268      13.84026727      -0.25734908      -0.21333482       0.29533702
S        8.48366543      16.56110230      17.07370498      -0.35691926       0.34091327       0.04957907
S        5.67324304      16.91253132      15.74753468      -0.18350009      -0.09245333      -0.09131992
P       12.51204576      21.64815337      10.02368992       0.00127203       0.02086599       0.12514214
S       12.75951065      23.33557854       8.93526792       0.18577589      -0.49551748      -0.30304514
S       13.82095760      19.97647082       9.83612522      -0.08290907      -0.36917506       0.38666290
S       12.78215018      22.23053953      12.03321830       0.04435054       0.26707867      -0.12265909
S       10.59419983      20.83917612      10.14402159       0.43933861      -0.30754496       0.52341484
P        7.34298997      12.47422771      18.50750076       0.15398439       0.05172133      -0.26693366
S        8.49855149      13.22847752      16.98816646       0.14307777      -0.55181695      -0.69360679
S        5.78707081      11.74043978      17.34818972       0.06792099      -0.21107260       0.09394346
S        8.05987749      10.68160293      19.48903669      -0.16088387       0.31674190      -0.31708094
S        6.82409121      14.09252539      19.81800424       0.16814070       0.14434388      -0.34752488
P       12.42557909       2.34483802      18.34719951      -0.02074936      -0.15924017      -0.03916829
S       11.12184380       3.98076919      18.32409773       0.63352180      -0.17950650       0.35215707
S       13.27325173       2.20913669      16.49028902      -0.25114643      -0.31741037      -0.01208468
S       13.72372711       3.15565645      19.69828309      -0.07560876      -0.26669510       0.10741807
S       11.38060726       0.65281825      18.77882225      -0.24112500      -0.11523225       0.01830760
P       17.09627171      22.00718520      10.33848994       0.49845514      -0.21790042      -0.01723989
S       17.12041437      20.25815094       9.10522856       0.26128980       0.34722817      -0.10325627
S       15.41611717      23.20142803      10.09002287       0.21662035      -0.39107257      -0.11015212
S       16.76169045      20.80435241      12.07856436       0.50225821       0.68529326       0.10663865
S       18.43369269      23.55072589      10.70333595      -0.11071572       0.02784778      -0.29627182
P        2.42495720      17.52436336       2.32834409      -0.15473166       0.01605892       0.13660244
S        3.89662525      18.48227484       1.28977937       0.00176356      -0.35106754       0.27752340
S        1.53558592      16.27585446       1.01263091      -0.23944463       0.02594308       0.39361119
S        3.27131343      16.83927550       4.17129664      -0.08541193      -0.42206180      -0.13639185
S        0.73694328      18.69137803       2.92586027      -0.11680768      -0.07238355      -0.15307091
P        2.56349073      17.76215549      19.48975634      -0.08513798       0.13192469      -0.20523612
S        1.89403213      17.77203539      17.56965961      -0.22391104       0.63187939      -0.29604225
S        1.48950743      15.99864769      19.29843600      -0.16375268       0.23328127       0.44506916
S        4.65814854      17.45992251      19.40512472      -0.32702325       0.41441699       0.33819700
S        1.53171041      19.41376756      20.02345421       0.25142274       0.02624739      -0.92036938
P       11.62940877       2.12574228       2.56816298       0.16522828      -0.17668295      -0.04299277
S       10.09274349       3.54987707       2.79922029       0.27620672      -0.59702476      -0.43672277
S       11.50043141       1.05908633       0.88874291      -0.30615132      -0.19873341       0.17809911
S       13.43046564       3.22372288       2.43002644      -0.24910183      -0.81987178      -0.28928837
S       11.75579425       0.93253929       4.31768773       0.20671071       0.27833023      -0.15711953
P        7.53103483       8.08119781      10.27048528       0.31051133       0.50042912       0.14295669
S        6.84380168       7.00173156       8.18189834       0.12856890       0.83745960       0.12750349
S        6.38514905       8.95121318      11.89481233       0.48681330       0.95184034      -0.05306204
S        7.97467076       6.30007855      11.22269345      -0.23851859       0.24969706      -0.37636184
S        9.42179519       9.01215615      10.25875920       0.16912431       0.56697996       0.29649928
P       12.06912139       7.34542449      14.53209612      -0.77364850      -0.24715951      -0.37681911
S       12.41477986       9.45831326      14.69715147      -0.44477774      -0.37057845      -1.00177909
S       11.89601701       6.43494653      12.57714706       0.43910988       0.58798291       0.35529056
S       13.69526976       4.63415333      15.09549701      -0.61152223       1.17296136       0.00864712
S        9.58819490       7.06387022      15.19583152       0.23976077       0.46712477       0.06538471
P        2.48809020       7.17922280       6.17142269      -0.02393540       0.29082373      -0.30016707
S        0.47326606       6.46438128       6.26073898       0.11171545       0.14108469      -0.20860780
S        3.17273310       8.80832174       4.75736163       0.39740592      -0.12781182       0.32535670
S        2.90356035       8.48202244       7.74466224      -0.47983228       0.00645511      -0.37461720
S        3.93284118       5.68588351       6.23801086      -0.50071990       0.53790673       0.00315874
P        7.42583370       7.27760294       2.20974346      -0.04989578       0.04223407      -0.19870120
S        7.16231571       9.26538371       1.84537554      -0.11473427      -0.26886531      -0.55478925
S        8.45209997       6.44900265       0.63570603       0.36908674       0.06823339       0.45003525
S        8.23521326       7.05070645       4.24024578      -0.06657610      -0.02783593      -0.10800318
S        5.83852000       5.95728871       2.24520983      -0.01656611       0.29233017      -0.76647908
P       12.36637215       8.02171081       2.02508179      -0.05279442      -0.09782263       0.01704655
S       10.74442657       8.86048965       1.03944829       0.36267593      -0.11610358      -0.00196878
S       14.73657586       7.80745260       1.88792010      -0.85049091      -0.46656703      -0.71179173
S       11.99540341       8.63676994       3.93178322       0.26347389       0.01431174      -0.05436272
S       11.82777258       6.02479619       1.94078209      -0.45831597       0.29855071       0.15474609
P       12.13963613      13.08256649      18.70822917      -0.22947806       0.40566640      -0.01908466
S       13.43201093      14.69939507      18.07801375       0.50310074      -0.73402752       0.43852156
S       12.23243521      11.40414231      16.73301314      -0.55546188       0.43755405       0.51689223
S       12.43743023      11.95296179      20.35536144      -0.25328336       0.61277085      -0.16825355
S       10.41264453      14.15969409      18.99470953       0.20677793       0.60123481      -0.01420071
P       17.02132589      22.84233750       5.99506569      -0.02733231       0.22623637      -0.04110728
S       18.13786229      23.82339421       4.56621710       0.09552745      -0.03062233       0.48603095
S       14.92371923      22.85829925       5.73225065       0.14265525       0.29397077      -0.18808053
S       17.72045077      20.96664652       6.26008957       0.04119799       0.10193921      -0.34747111
S       17.36873592      23.91762641       7.66968374      -0.89803305       0.37135977       0.05056238
P       11.99368532       2.62144739      10.31682918      -0.00780819      -0.03694702      -0.15465384
S       13.44607794       3.16848187       8.98880632       0.07112685      -0.60613736      -0.26215096
S       11.04559826       0.86074635       9.86348915      -0.02505863       0.09934487      -0.22659457
S       12.53664381       2.61901770      12.33667872      -0.43275579       0.05724880       0.07721512
S       10.60442960       4.29105113      10.18527124       0.24740594      -0.00221856      -0.14172843
P        2.70146137      12.58145496      10.50696250       0.25845048      -0.27093405      -0.10001236
S        4.61117289      13.40866123      10.59743469       0.43831001      -0.96458308      -0.15049812
S        3.02650912      10.94521161       9.28934307      -0.21849803       0.12439973       0.41138833
S        2.83581885      11.50702999      12.31426166       0.03024821       0.23064247      -0.19973916
S        0.50501060      13.18108283      10.29141314      -0.15970985      -0.39913402       0.09229553
P        2.36136787       7.08008564      18.46764616       0.36595172      -0.34579346      -0.34986940
S        3.15949502       5.97936348      16.86428956       0.14736309       0.11894148      -0.16616167
S        0.64513563       8.15619346      18.18083660       0.29831182      -0.65459521      -0.00923494
S        2.07699416       5.92546011      20.12372764       0.13679753      -0.18234203      -0.16848638
S        3.82001295       8.55494055      18.67266768       0.34279416      -0.24258571      -0.38455328
P       17.02404001       7.36799191      14.74519815       0.15601504      -0.12908314       0.01189624
S       17.05735730       5.89440025      13.26633415       0.10075870      -0.07255715       0.30483478
S       15.33745437       8.54230052      14.58332461       0.32317072      -0.21864257      -0.41652017
S       17.05421856       6.51668474      16.60150945       0.50933777       0.32512997      -0.02989701
S       18.74543934       8.43122832      14.48774410       0.16916427      -0.38654942      -0.02548930
P       16.86515290      17.12563815       6.45519354      -0.00339094      -0.23446708      -0.09830076
S       15.36976456      18.47897718       5.88785481       0.25740492       0.17954558      -0.24059314