ITEM: TIMESTEP
100
ITEM: NUMBER OF ATOMS
483
ITEM: BOX BOUNDS xy xz yz pp pp pp
-2.4167092752215236e-01 1.9776589085655250e+01 2.4455500501933101e-04
-3.0948812952857863e-01 2.5326362846798801e+01 -1.0889293693939282e-04
-2.6200728783419436e-01 2.1450168701581198e+01 -1.3430893577979350e-04
ITEM: ATOMS id type x y z fx fy fz
7 2 8.62058 11.2219 9.12177 0.339909 0.242548 -0.0314427
46 1 4.61604 10.5052 1.4806 -0.00249374 -0.149876 0.0859743
193 2 2.04037 -0.000545491 0.350652 -0.260982 0.17745 -0.16559
49 2 18.4988 11.5155 3.28983 -0.122903 0.0190923 -0.0248401
50 2 4.90919 10.8321 4.16999 -0.0400692 -0.0286006 0.157423
53 2 1.59927 10.4917 0.73221 -0.0905175 0.00449862 0.0534356
54 2 6.28915 9.563 0.0375202 -0.263634 -0.0610134 -0.504192
55 1 10.3002 11.6113 6.26766 0.180282 -0.0236477 -0.0585484
59 2 12.2657 11.6272 8.32747 0.0405694 0.15545 0.00845374
61 2 16.2137 10.9076 5.48113 0.0769086 -0.139869 0.0091762
63 2 9.65056 9.93086 5.12755 -0.107185 -0.273454 -0.196383
86 2 2.82467 7.20752 0.888221 0.00608081 0.0839607 -0.0115173
92 1 4.1131 8.71539 10.2093 0.00393066 0.0869668 0.0558486
93 2 3.52196 11.0208 9.91553 -0.143017 0.0292701 -0.110859
94 2 1.74935 6.72354 9.9279 -0.00889709 -0.0314413 -0.0848941
98 2 8.08791 4.42442 9.2194 -0.00335251 -0.0667882 -0.117618
99 2 11.77 7.20702 10.4801 -0.138235 -0.212816 0.0559865
100 1 10.946 1.52502 3.16307 0.0393279 0.13338 0.201217
101 1 14.683 3.39106 0.484457 0.18517 0.193901 -0.00353328
104 2 13.1397 2.17382 4.78088 0.0778467 0.0669199 -0.0495873
105 2 12.2343 2.44524 0.691108 0.17927 0.00802471 -0.149811
106 2 15.7519 3.78358 1.66906 0.0922799 -0.291159 0.141176
107 2 9.70026 3.76495 3.26137 0.0676404 0.138836 -0.0301409
108 2 9.72006 0.380866 1.06519 -0.0250263 -0.0722354 -0.244913
109 1 7.13864 6.40549 3.9009 -0.0803939 -0.239705 0.0351799
110 1 6.9347 8.95536 6.55312 0.148525 -0.0840809 -0.110742
111 2 5.84545 10.9131 7.15011 -0.155955 0.0619397 -0.0816584
112 2 5.51767 8.17559 8.44127 -0.114236 -0.0819664 -0.0466384
113 2 8.59017 4.99258 5.492 -0.00636031 0.102397 0.0146562
114 2 7.54782 8.26775 3.61653 0.0203884 0.19245 -0.0402958
115 2 8.95043 7.99899 7.86098 0.120892 -0.123651 -0.0147238
116 2 5.29759 5.6528 4.90416 -0.141038 0.0753265 0.0380039
117 2 6.22225 5.6194 1.66326 -0.211824 0.126503 -0.0353026
118 1 18.4194 10.9089 10.4201 0.0672697 0.297903 -0.354896
123 2 16.3909 12.4871 8.2937 0.0632174 -0.0511327 -0.183893
126 2 18.7527 9.29961 7.7503 -0.0533633 -0.049155 -0.0759997
129 2 7.2538 0.00526138 6.67151 0.0702892 -0.129605 -0.0422467
145 1 11.062 5.81674 1.07275 -0.164179 -0.0324892 -0.160284
146 1 12.347 9.70742 0.686433 0.108314 -0.093714 -0.207972
147 2 14.3994 11.9981 0.0973708 -0.0700074 0.0837773 -0.0636454
148 2 10.3935 10.7941 1.06863 -0.152713 0.202196 -0.00557839
149 2 13.0752 5.04581 2.01685 0.192086 -0.0962425 0.129353
151 2 14.1778 8.99571 2.2938 0.00597949 -0.0521567 0.119601
152 2 9.47136 7.43759 1.41489 -0.0438979 0.169635 0.133067
181 1 10.228 0.753231 9.6804 -0.16706 0.483748 -0.0769392
474 3 15.9298 -0.22133 4.77403 0.00925911 -0.119607 0.0314107
183 2 5.15854 4.55183 8.68142 0.00415511 0.0564248 -0.0159134
186 2 7.52888 1.79413 10.2811 0.00503465 0.133478 -0.116362
189 2 10.9995 1.26301 7.76343 0.0408899 0.0737937 -0.177653
201 2 0.0867873 4.10757 9.63368 0.0132025 -0.0144511 -0.0444116
204 2 17.2618 6.75173 9.4542 0.0417192 -0.252261 0.0488291
207 2 14.2359 6.90802 10.0828 0.0427795 -0.189352 -0.0139064
208 1 1.69064 2.43655 5.85916 0.300007 0.00104372 -0.0168132
209 2 4.40949 2.06602 5.10407 -0.0816903 -0.125362 -0.092914
210 2 0.573436 -0.349746 5.3445 0.0180328 -0.140892 -0.0546793
211 2 1.07282 1.78938 8.81486 -0.0663238 -0.138152 0.078967
212 2 19.6612 3.73777 4.81108 -0.0228947 0.230553 -0.232816
213 1 15.8846 2.21837 7.27725 -0.0131721 0.0449695 -0.257107
214 2 17.9115 3.35154 5.65775 -0.0886098 0.0201823 -0.00692137
215 2 18.39 -0.0812074 7.09542 0.0712298 -0.0854628 0.0403712
216 2 16.5032 2.74646 9.51716 0.20768 0.157517 0.245514
217 2 14.539 -0.128526 6.39545 0.0709362 -0.0863839 -0.193614
218 1 1.24157 7.25883 5.75317 -0.185136 0.168691 -0.0158122
219 2 1.65652 10.1401 6.43086 0.0435323 0.0281357 -0.00599112
220 2 2.52431 7.69054 3.27349 0.167913 0.0158937 0.120344
221 2 2.49618 5.52505 6.73592 -0.0045406 -0.00559801 0.135552
222 2 19.1246 6.76699 6.03585 -0.260842 -0.082109 0.134247
239 2 13.3855 9.18913 9.80343 0.152331 0.0815118 0.0268267
240 2 13.3809 2.43526 9.80117 0.045109 -0.028624 -0.0218943
253 1 6.34077 1.99414 2.51616 -0.132084 -0.0697776 0.0941238
254 2 3.77602 1.82078 1.68254 -0.0328715 0.0814327 0.028155
255 2 7.4502 3.32863 1.22628 0.17343 -0.0225271 -0.0177693
256 2 6.72714 2.65458 4.78889 0.0901187 0.0766925 0.116441
446 3 -0.22354 6.60982 0.186436 0.0636793 0.324504 -0.285592
263 1 17.7169 7.17952 1.70678 0.0977639 -0.292821 -0.147397
264 2 15.753 7.84246 0.461708 -0.239492 -0.142982 -0.201243
265 2 0.0450207 5.13153 1.24419 0.0129889 -0.201468 0.230991
266 2 19.578 8.89299 2.84751 0.192114 0.114006 -0.0183916
267 2 16.4471 6.97224 4.27522 -0.13125 -0.0156486 0.190184
293 1 12.6401 6.84591 7.0214 -0.0529483 0.306467 0.0599701
294 2 13.2886 9.46849 6.55075 -0.00935914 0.0747719 -0.0798321
295 2 12.2739 6.93732 4.09177 0.0218645 0.0122508 -0.116038
296 2 14.7548 5.56662 6.60844 0.124981 -0.121074 -0.0901421
297 2 11.1581 5.26105 7.49461 -0.113958 -0.161216 0.0484405
326 3 15.7804 3.26783 4.68354 0.00716811 0.0408307 0.0169806
329 3 0.116997 9.75369 9.04815 0.245245 0.0596095 0.0481706
332 3 4.8292 7.75701 1.82922 0.116246 -0.0665189 0.0774661
340 3 16.7532 9.30545 1.25868 0.16531 0.0131223 0.0871762
344 3 10.9482 3.01757 9.41994 -0.0343386 -0.127156 -0.0310756
345 3 3.88479 3.67458 6.34469 -0.0621924 -0.0705765 -0.0372885
346 3 16.2762 8.50768 9.1511 -0.167264 0.210769 -0.00850012
349 3 8.16785 11.4863 5.23681 -0.0863637 -0.157039 -0.262708
355 3 11.3084 9.63723 2.67591 0.00517461 0.0997244 0.218349
358 3 3.61962 4.4214 10.2502 -0.00989176 -0.126613 -0.0274346
359 3 14.0676 0.870549 7.87532 -0.15638 -0.0655098 0.283349
363 3 1.12774 4.9938 3.03248 0.0473737 -0.07662 0.140637
365 3 10.147 3.16458 0.983844 0.029683 -0.0126636 -0.135351
377 3 17.5303 11.6343 6.92755 0.0206953 0.0171221 -0.00518043
382 3 19.2 8.6945 4.9924 -0.0209022 -0.110623 0.123023
383 3 5.98792 7.11924 10.4806 -0.0143308 0.0075268 -0.0463701
384 3 11.7369 3.80178 3.99974 0.0643709 0.0374239 0.0286578
385 3 4.37185 0.11279 7.92392 0.0388147 -0.0561864 0.103952
387 3 2.13842 10.5092 3.38214 -0.0666128 0.0934422 -0.0708364
483 3 9.43852 6.81882 4.08368 -0.0196183 -0.0221184 -0.131343
395 3 18.2291 3.57367 1.19341 0.016921 -0.126105 0.00959754
398 3 0.370014 6.22903 8.00501 0.071321 -0.00192441 -0.164041
408 3 3.45591 7.45582 5.31827 0.147202 -0.0422317 -0.087167
411 3 11.0992 9.44424 10.047 -0.109005 0.0259582 -0.0652217
413 3 15.5593 5.56593 0.888352 -0.167208 0.375822 -0.12547
417 3 8.56658 1.80311 3.41244 -0.213127 -0.0269805 0.0604876
419 3 11.0113 8.67518 6.32158 0.0172633 0.188575 0.0992844
434 3 5.46548 3.6342 0.946379 -0.0440737 -0.203065 0.00937344
435 3 7.52689 9.84231 1.35213 0.0701331 0.143952 0.159117
436 3 14.5516 10.4554 4.28485 -0.0618972 0.128071 0.0723457
440 3 18.0468 3.45086 7.93317 -0.212018 -0.12897 0.00512838
444 3 6.7653 6.23602 6.56347 0.0505111 0.0564019 -0.0613121
286 2 18.1597 -0.233273 2.99372 0.020982 0.0950893 0.0113941
453 3 3.8414 9.92321 7.92888 0.124205 -0.0359838 0.111678
454 3 8.02295 1.59454 7.59959 0.0343297 -0.0350888 0.2591
457 3 8.45824 5.84542 0.65034 -0.0208666 -0.0167275 0.0246713
465 3 7.19573 10.0111 8.73711 -0.170555 -0.235548 -0.238554
466 3 13.4717 5.18944 8.30963 0.0429699 -0.0184014 -0.0128716
476 3 2.69545 0.912686 3.82407 0.0416395 0.000586807 -0.0258236
57 2 15.1527 12.132 2.54972 0.0267637 -0.0566854 -0.116801
2 1 6.32627 12.099 9.07376 0.0437595 0.0575599 0.0207672
471 3 11.7588 0.121264 5.14226 -0.0485509 -0.0291247 -0.104519
60 2 13.0166 12.3771 4.42057 -0.0989232 -0.154282 -0.198338
317 2 18.1399 1.30733 -0.125375 0.0156046 0.0131533 0.0776612
9 2 5.50268 11.5613 13.378 -0.0630195 0.00111599 0.0191097
28 1 11.2002 12.3523 17.3081 -0.0795759 -0.128954 -0.231376
30 2 12.7706 12.144 11.1432 -0.03679 -0.023989 -0.0953603
33 2 11.0822 11.7807 14.6608 -0.0127238 0.0669196 -0.0219146
36 2 9.80819 10.4234 17.9884 -0.0356645 -0.117653 0.059837
64 1 9.78568 5.77639 16.5753 0.0335298 -0.249285 0.0467901
65 1 6.70696 10.7025 15.4467 -0.000392175 -0.0688211 -0.127479
66 2 8.6885 10.8542 14.0621 -0.0145661 -0.053625 -0.0400862
67 2 6.83409 8.44448 14.7125 0.0579222 -0.0107564 -0.0463908
68 2 8.66267 6.97326 18.9454 -0.0078307 0.119468 0.0271227
69 2 9.78255 8.11684 15.135 -0.0497677 0.173041 -0.0411947
70 2 6.27845 11.4105 16.8314 -0.0602101 0.0797273 0.237489
71 2 5.94146 4.71287 16.0308 -0.0917588 -0.046466 0.175173
72 2 12.4942 4.59525 17.325 0.104842 0.0383052 -0.0272082
82 1 2.11462 6.33848 20.1499 -0.127085 -0.172166 -0.0218722
83 1 1.93992 8.33607 17.8693 0.0505551 0.245421 -0.203586
84 2 4.47101 8.01199 16.2855 0.116146 0.0839342 -0.0116157
85 2 -0.171607 7.72528 16.9984 -0.153023 -0.0024869 -0.109813
87 2 4.59604 6.88539 19.3702 0.0653281 0.0152263 -0.0717542
88 2 2.28882 9.84711 19.5656 0.184632 0.0755959 0.243875
89 2 0.173234 4.85614 19.7151 -0.204247 -0.231747 -0.0321782
90 2 3.08332 3.14034 20.4213 0.0751384 -0.113415 0.0651714
91 1 8.33498 6.29666 11.0379 0.0252329 0.159495 0.0753449
95 2 9.7691 5.59837 13.2526 0.129199 0.208041 -0.0064638
96 2 8.01814 8.87244 10.7852 -0.0158027 0.053122 0.146665
97 2 4.97771 7.94052 12.0735 0.184818 -0.0627601 0.175558
102 2 14.8048 1.87496 21.3656 -0.0754214 -0.181722 0.0482086
103 2 14.2867 4.56361 20.6959 0.0958464 0.0618742 0.0281463
122 2 0.650809 11.3943 11.3046 0.0590398 0.0816765 0.0820356
125 2 17.816 10.5514 13.5958 0.0194993 0.0441037 0.0923024
150 2 12.0139 7.6936 20.6388 0.166597 -0.0673976 -0.111032
153 2 10.2505 4.42887 20.4319 0.0880463 -0.0422406 -0.00227863
156 2 -0.210138 0.395988 12.4863 0.00787253 0.0353179 -0.136488
157 2 16.7236 0.260194 13.8833 -0.117764 0.183238 -0.045892
184 2 3.63393 2.22774 11.198 -0.00136031 -0.0600699 -0.0280407
185 2 11.1272 2.64215 11.7398 -0.0242682 0.0348265 0.109442
187 2 6.31892 4.70209 12.553 -0.116509 0.117686 0.314884
199 1 15.9739 8.03338 11.8122 0.128606 0.0464806 -0.183868
200 1 19.1 6.42034 10.5903 -0.163934 -0.032486 -0.0690113
202 2 -0.0946335 7.90318 11.4367 0.183151 0.126375 0.11895
203 2 16.2469 6.74957 13.2655 0.0876052 -0.155003 0.21014
205 2 18.723 5.12699 12.5874 -0.0849934 -0.0244551 -0.053355
206 2 16.5292 9.90939 10.9374 -0.163453 -0.05931 0.0403803
228 1 1.80176 11.4397 15.0567 -0.438031 0.0147348 -0.24389
5 2 9.50402 12.4703 12.0946 0.0850131 -0.0483985 -0.224542
232 2 1.94204 9.42572 14.4311 0.457147 -0.0296274 -0.0923385
238 1 12.6461 7.11957 12.8724 -0.208423 -0.0988856 -0.00291581
241 2 13.4616 5.47457 13.5983 -0.0198033 -0.0985733 -0.00140285
242 2 12.3168 8.77242 13.8244 0.0984338 -0.0219603 0.188702
248 1 7.57063 1.60885 14.643 0.0326292 0.164237 -0.27317
249 2 9.4102 3.50717 14.1899 0.151442 -0.216991 -0.0244438
250 2 9.18271 0.0135104 15.8932 0.0745447 -0.197383 0.0478238
251 2 9.32271 2.52226 16.694 0.0911917 0.1211 0.0128142
252 2 5.42261 1.58508 14.5719 -0.266606 0.102359 -0.124492
258 1 18.0495 12.1053 19.0946 -0.0161873 -0.0773252 -0.189374
259 2 15.0308 11.6902 18.4288 -0.0525336 -0.0335807 -0.0259711
260 2 -0.146076 11.4598 17.3003 0.0147814 -0.158474 -0.127838
262 2 17.9715 10.3477 21.0688 -0.0382298 -0.0723364 0.0129816
278 1 16.29 7.68691 18.1479 -0.0992578 -0.0246091 0.182339
279 2 13.324 7.85571 18.3094 -0.00627522 -0.00416808 -0.0935013
280 2 16.4726 9.29885 16.0703 0.0488063 0.125988 -0.108859
281 2 18.355 6.9651 19.2583 0.275917 0.0966515 0.157697
282 2 15.8419 4.98904 16.2617 0.00841142 -0.0240898 0.0161845
288 1 2.57562 2.52149 15.3287 0.152058 0.181468 0.221803
289 2 2.27269 4.20707 12.7512 0.0889865 -0.0268086 -0.0181849
290 2 19.5418 2.38735 14.7854 -0.10125 0.0557467 -0.0427182
291 2 2.08554 0.182046 15.3004 -0.068378 -0.203841 0.0613132
292 2 2.43007 3.99 17.7766 -0.031248 0.0677316 0.0834852
313 1 17.4322 1.42735 19.3941 -0.0545614 0.073155 -0.0625781
314 2 16.3134 1.39301 17.8378 -0.375967 0.148735 0.0968324
315 2 19.5546 1.71429 18.0789 0.278064 0.0871493 -0.0395277
316 2 17.2397 4.63918 20.1808 -0.0869197 -0.0325028 -0.0144652
415 3 17.0094 12.4303 21.2528 0.215613 0.110232 -0.0360967
318 1 7.54738 2.83422 19.6813 -0.169129 0.0930155 0.190625
319 2 5.885 1.01057 18.002 0.0439748 0.0107053 -0.0284504
320 2 6.82873 4.68205 19.8607 -0.0875378 0.138938 -0.05945
321 2 6.50365 -0.169825 20.3529 0.00585063 0.057313 0.0397206
322 2 9.17962 1.73564 19.2324 0.157745 -0.19708 0.068283
324 3 6.4069 10.284 12.1763 0.0166435 -0.0323176 0.0596496
327 3 12.0261 2.92991 16.3722 0.0817311 0.0288703 -0.0345699
331 3 1.00387 6.20809 17.6801 -0.0385182 -0.292152 0.0268693
336 3 7.85893 4.08461 11.5452 0.345742 -0.0561529 -0.140037
338 3 14.7144 9.12454 17.1733 -0.0577073 -0.00210783 -0.0352172
351 3 8.84203 4.37033 18.6172 -0.043272 0.037466 -0.127172
352 3 11.5208 10.0038 15.9467 -0.0761424 0.0165544 0.0439016
354 3 3.56857 10.4451 15.7603 0.226585 -0.17897 0.0870678
367 3 2.7185 10.1233 12.0868 0.00656979 0.152478 -0.00397605
371 3 13.7077 9.12277 12.5255 0.141155 0.207985 -0.0301062
372 3 0.453175 8.82388 15.2175 -0.150117 0.000801362 0.135127
373 3 6.93691 8.27203 16.8879 0.0635971 0.0744602 0.0164996
376 3 12.4171 5.1225 19.5203 -0.025259 0.150542 0.113756
378 3 2.36292 1.3776 17.5625 -0.128323 0.085666 -0.155104
386 3 18.1809 11.4323 15.6705 0.026605 -0.0310624 0.0882868
388 3 8.45407 12.0955 17.53 -0.0236047 -0.0298194 -0.0696933
391 3 14.8358 2.11733 19.1651 0.0912159 -0.0570113 -0.0651887
397 3 10.4794 8.30196 21.3985 -0.161807 -0.00220556 0.0110708
402 3 9.72948 7.82862 12.5765 -0.00290869 -0.18731 -0.0486813
404 3 16.8191 5.37108 11.1096 0.0563445 0.0471482 0.0397395
405 3 18.407 9.57112 19.1933 -0.00786814 -0.161678 -0.0765252
416 3 0.784832 6.06625 12.5256 -0.204333 0.0537611 -0.133613
420 3 2.40004 1.31597 13.4781 -0.0198171 -0.0762911 -0.21682
424 3 1.43613 11.4952 18.8818 -0.109459 -0.152029 -0.216734
426 3 3.3879 8.15836 19.9878 -0.00831003 0.433087 0.0644029
429 3 12.7784 5.06299 11.7344 0.0538942 0.0367893 -0.0454159
431 3 17.9346 4.54509 17.5888 -0.121572 0.0811028 0.0338384
432 3 12.8963 6.73224 15.2446 -0.0624329 -0.0494105 -0.00331804
438 3 15.3622 12.4494 13.2255 0.272983 -0.143117 0.0344727
439 3 17.8926 0.872529 17.0512 0.0858932 -0.14428 -0.0693309
442 3 4.68529 11.1756 20.5546 0.201532 0.0221887 0.230076
182 1 5.80396 3.88926 11.0096 -0.365053 -0.156386 -0.0668599
448 3 3.64482 7.2922 13.334 0.0517803 -0.0224323 0.056233
455 3 7.99636 4.75658 14.898 0.0396248 0.0603773 0.174597
459 3 4.67699 4.85921 18.7903 0.0539917 -0.0674927 -0.0432512
460 3 11.749 11.6897 19.4829 0.0256695 -0.079035 0.0387262
481 3 13.8417 8.71279 20.8843 0.174592 -0.124623 -0.150287
463 3 9.97304 1.48383 14.1242 0.0237745 -0.0208623 -0.0789042
470 3 4.39913 4.05694 14.5121 -0.0489966 -0.0402611 -0.0799784
472 3 18.3902 9.33861 11.9523 -0.239443 -0.260751 0.289478
473 3 6.6421 0.962684 11.9123 -0.0356612 -0.106996 -0.0296693
34 2 13.9409 12.3187 14.527 -0.10707 -0.0100012 0.235753
451 3 16.2561 1.17831 10.7134 -0.0295965 0.0059466 -0.0187178
468 3 7.434 23.0971 7.59931 0.0584812 -0.0429676 -0.0737176
3 2 3.28157 14.0214 8.67363 -0.069063 0.083075 -0.0039027
4 2 7.33909 14.9914 8.01726 0.334229 0.0650797 -0.260339
10 1 5.215 21.9021 6.54581 0.0425138 0.546436 0.0124676
11 1 9.57376 22.0879 6.4229 -0.0991428 0.244269 -0.190112
12 2 11.7105 21.6581 4.5991 0.057594 -0.0811522 0.0861498
13 2 9.58463 24.8369 4.40677 -0.0150501 -0.0415239 0.0511153
14 2 5.26117 21.5945 9.45285 0.095152 0.0513244 0.104778
15 2 7.61342 21.0135 6.05909 -0.000187056 -0.0346343 -0.0941088
16 2 10.3943 23.6627 7.98601 0.0695683 0.192372 0.0743577
17 2 4.07044 24.423 6.01338 -0.207619 0.207712 0.162367
18 2 4.07943 20.0534 4.89487 0.0284422 -0.102586 -0.107589
19 1 15.6568 18.8208 7.87418 -0.142154 -0.0165893 -0.0471139
20 1 19.0874 16.45 4.74563 -0.0760661 -0.0126745 -0.0436389
21 2 14.8133 16.192 3.8154 -0.161919 0.0333154 0.266746
22 2 19.0544 19.1528 4.81713 -0.0616094 0.0684745 0.0672069
23 2 18.48 17.7707 9.37468 0.00888895 -0.00400656 0.0143718
24 2 16.5904 17.7763 5.7702 0.108213 0.00986258 -0.0855843
25 2 0.274333 15.9689 7.17038 0.0978994 0.0195346 0.0615565
26 2 17.1199 21.5201 8.31781 0.0603973 0.10423 0.0607033
27 2 14.433 18.3864 9.79311 -0.325059 0.0574658 0.134408
39 2 1.71544 19.4057 9.59755 -0.0702901 -0.0719735 -0.0359065
48 2 0.822584 13.4412 0.655726 0.071724 -0.0625207 -0.0579574
51 2 4.46281 13.1445 0.553496 -0.0111808 -0.0289651 -0.0108712
52 2 1.26745 12.652 4.21129 0.125509 0.0169564 0.287034
56 1 14.8287 12.5997 5.26371 0.319332 0.0926271 0.158372
478 3 5.8136 16.376 3.02475 0.036442 -0.0883154 0.0615902
58 2 14.7234 14.9429 6.31755 -0.0242038 0.0442122 0.0805097
450 3 13.055 17.1529 0.412054 0.0351061 0.0839347 -0.0292336
62 2 11.0006 15.374 8.41589 0.0586843 -0.0517917 0.077166
119 1 16.73 14.3792 9.35406 0.0462203 0.10431 -0.149071
120 2 15.072 15.172 9.1776 -0.113104 0.0757796 0.0344728
124 2 19.0466 14.3928 8.93386 0.0451138 -0.0915075 0.134008
128 1 6.41548 24.7591 9.19385 0.068394 0.116142 0.0722932
130 2 4.03134 24.2778 9.47679 -0.258197 -0.100089 -0.00112832
132 2 8.43423 21.9266 9.34912 -0.0288798 0.0581138 0.0478148
143 2 10.6572 17.8787 0.724371 -0.00457451 0.0307482 -0.0559491
180 2 13.1556 21.7497 10.2022 0.0834563 0.0232997 -0.00772222
190 1 1.54646 21.4671 3.32869 0.0967123 -0.0294694 -0.0085925
191 1 3.28139 24.1645 1.28122 0.0972138 0.0528104 -0.19345
192 2 6.05565 23.5062 0.61302 0.0501782 -0.029603 0.0480079
477 3 14.994 14.6775 2.48676 -0.0240559 -0.195542 0.0421571
194 2 1.68896 21.7501 5.51315 0.000957802 0.132431 0.23245
195 2 4.14127 21.7872 -0.0053379 -0.0498138 -0.0373023 -0.0352553
196 2 4.07144 24.551 3.59792 -0.0758831 0.0565295 0.0322022
197 2 0.52935 22.6658 1.61507 -0.167861 0.178988 -0.193113
223 1 2.77232 17.4944 2.50128 0.0707657 -0.0915864 0.0230036
224 2 4.49952 16.7111 1.47367 0.159283 -9.45487e-05 -0.0937165
225 2 0.925158 15.9467 2.82095 -0.0990791 -0.033865 -0.0937195
226 2 2.91941 17.9826 4.88887 -0.026832 -0.206341 0.192596
227 2 1.9849 19.4062 1.66506 -0.0643446 -0.0376499 -0.116295
233 1 11.4649 17.7368 5.5745 0.0472293 -0.119852 -0.222707
234 2 13.2508 19.4324 5.20637 0.224752 0.00434306 0.0319706
235 2 9.49872 18.5986 3.96129 -0.0638238 0.126183 -0.123421
236 2 10.7949 15.5066 5.30729 0.0644568 -0.160221 -0.0645268
237 2 11.0718 18.9597 7.56021 0.0736521 -0.00163995 0.195529
243 1 15.6086 16.7142 1.99103 0.139219 0.33128 -0.194303
244 2 18.3846 18.0246 1.66551 0.0918934 0.0765396 -0.0264742
245 2 15.9281 15.3739 0.178543 0.0265373 -0.178909 -0.137005
246 2 17.9249 14.4187 3.41298 -0.188636 -0.183242 -0.00957893
247 2 14.7964 19.1222 0.705622 -0.0848539 -0.182216 0.165858
273 1 7.04018 13.6485 4.1811 -0.279564 0.0283579 0.138053
274 2 8.17152 12.6668 2.68162 0.0869915 -0.0363058 -0.16585
275 2 4.74325 14.5194 4.2384 -0.117691 0.0888702 -0.0945454
276 2 8.02043 13.0648 6.25413 0.0949219 0.14787 0.267888
277 2 8.13883 16.2011 4.09451 -0.0502648 0.156182 -0.0474996
283 1 17.0944 22.5019 2.63939 -0.128019 -0.0666469 0.160782
284 2 14.7581 24.3302 1.60568 0.0638802 0.371017 -0.165359
285 2 17.8951 20.9511 0.839871 0.0435148 -0.195052 -0.206109
414 3 16.1245 17.216 9.75767 0.0471326 -0.0844935 -0.0240019
287 2 15.8368 22.5262 5.40845 -0.0628386 0.108261 0.14021
47 1 0.904386 12.6605 2.58879 0.1207 0.0494484 -0.19117
300 2 6.37981 17.3988 7.05882 0.017749 -0.0386921 0.00438036
301 2 7.55488 18.5902 9.79611 0.0323922 0.193963 -0.266349
308 1 11.7782 22.8947 1.45735 -0.0536856 -0.0901183 -0.0932601
309 2 12.0149 24.1312 3.25075 0.10639 0.062425 0.106977
311 2 12.8476 21.2851 1.63718 0.200457 -0.144678 0.0222557
312 2 9.78114 21.9653 1.39868 -0.275236 0.190832 -0.0495017
323 3 12.9516 19.8654 8.43556 0.0933687 0.0502644 0.130322
328 3 3.78812 19.8895 2.62631 0.0246194 -0.0829647 -0.0227479
333 3 13.6736 17.5456 6.48773 0.0950987 -0.116449 -0.12213
337 3 12.8453 13.7377 5.78376 -0.177381 0.117821 0.0986323
341 3 2.79665 17.5574 0.0476905 0.117567 0.0533758 0.0242096
342 3 11.2191 13.9715 0.216856 -0.142033 0.0716505 -0.0324895
343 3 15.8892 20.1838 5.76493 0.0933359 0.0293523 -0.000932429
347 3 9.28465 19.9957 6.99018 -0.0393473 -0.355674 0.0911164
389 3 15.1071 12.7363 9.64375 0.211531 0.113744 0.00655355
357 3 9.88519 12.7209 8.167 -0.0885889 0.209259 0.328162
360 3 15.5097 20.9048 -0.0557185 0.171859 0.152522 0.0231845
361 3 1.17921 19.5396 4.7998 0.0037948 -0.0162309 0.0639552
362 3 5.17287 12.5592 2.86051 0.131702 0.0537106 -0.0473122
368 3 4.46404 14.804 6.20842 0.157056 -0.035952 -0.15141
370 3 11.0938 20.3678 1.73075 0.0441546 0.0752186 0.00958604
374 3 6.03788 24.8147 4.73974 0.185484 0.0890286 0.0506212
390 3 5.67869 19.8829 6.26613 0.0146047 -0.355493 -0.0885513
392 3 14.7558 18.8043 2.9211 -0.0476287 -0.11493 -0.0497158
396 3 14.0751 22.7336 2.49865 -0.0974162 -0.110046 0.188002
399 3 3.73122 19.9622 9.87577 0.0557632 -0.066075 0.0168496
403 3 4.30912 22.8704 2.78888 -0.0342338 -0.185594 0.0905202
410 3 9.98979 16.6926 6.88941 -0.268411 -0.0487769 0.257434
475 3 6.02173 14.6585 9.16283 -0.292569 -0.187595 0.411643
418 3 2.4715 14.7294 2.84331 -0.0913935 0.00663033 0.0188824
257 2 7.52181 25.2569 2.24003 0.0520225 -0.0817967 -0.0163603
425 3 10.7525 16.3567 3.44354 0.0163144 -0.0108722 -0.0513435
427 3 1.14075 13.8628 7.07902 -0.108294 0.00667878 -0.0139492
428 3 0.795017 20.6617 8.45994 -0.186439 0.103094 -0.0456191
433 3 16.9879 15.0577 6.54538 -0.112911 -0.0644288 -0.052031
441 3 19.5873 23.0496 3.47488 0.108414 0.0695327 -0.0450302
443 3 11.2423 24.5456 9.73191 0.199124 -0.414512 0.119757
445 3 18.2049 20.0214 2.85503 -0.0673964 0.0543032 -0.0423083
464 3 7.92865 22.01 4.36357 0.02087 -0.0646744 0.00416194
452 3 18.7932 16.088 2.30634 0.0834382 -0.0761228 -0.00563633
461 3 18.9216 17.7903 6.66709 -0.0966719 0.105904 0.0359857
1 1 8.11458 13.8893 12.9939 -0.0257389 -0.00537162 -0.132978
482 3 4.1381 15.6661 18.5331 -0.0295545 0.062675 0.0103152
6 2 5.35308 13.0982 10.976 0.0574883 0.223138 0.0992111
8 2 7.39271 14.3989 14.6023 -0.0686058 0.160675 0.121601
29 1 13.2685 13.4811 13.2126 -0.022356 0.0434035 0.110828
31 2 12.3098 14.9744 12.8887 -0.148018 0.134516 0.0261396
32 2 12.9317 13.3361 18.323 0.10458 0.176953 0.171509
449 3 17.9864 23.836 20.7765 -0.0344762 0.184841 0.213846
35 2 9.61264 14.214 17.0439 -0.0801074 0.0960127 -0.0630589
37 1 4.25642 16.8596 15.1193 0.0554625 0.0300738 -0.219745
38 1 2.30929 19.5254 12.1154 -0.0751948 0.0368782 -0.0736227
40 2 19.4285 18.7212 13.5845 0.0499935 -0.0262164 -0.0887975
41 2 3.46513 19.3482 15.0123 0.015013 0.125596 -0.0698995
42 2 2.56923 17.1891 12.8856 -0.222587 -0.175152 -0.0482144
43 2 2.38578 22.5423 12.4239 -0.0182696 0.113025 -0.0246331
44 2 2.066 15.4089 16.4864 0.0295807 -0.159032 0.041898
45 2 5.96513 15.3214 16.4219 -0.0631622 0.0216059 0.241118
73 1 18.3895 15.9677 14.357 0.0989832 -0.239211 -0.014296
74 1 15.5951 16.8781 17.4868 -0.0968831 0.375027 -0.0265477
75 2 14.061 20.5133 16.2882 -0.124524 -0.12141 0.194486
76 2 13.2405 16.0877 15.9899 0.0725566 -0.0854245 -0.0881008
77 2 0.0553241 16.8472 14.8854 0.132817 0.110567 0.0945907
78 2 16.384 17.7394 14.7117 -0.0647677 0.063321 -0.013126
79 2 19.7434 19.866 17.8059 0.0251443 -0.0492715 -0.0748583
80 2 16.4203 14.7981 14.4251 -0.0980656 -0.0145167 -0.0427059
81 2 18.0211 16.0926 11.9855 -0.0479972 -0.00181685 -0.157075
121 2 16.8121 13.4592 11.3453 -0.0840017 -0.0257793 0.108642
127 1 8.14828 21.0213 11.7495 -0.0730431 -0.235509 0.0138468
131 2 8.54788 23.3658 13.1903 0.129086 0.154873 0.0236187
133 2 8.81136 25.0636 11.0234 0.0144767 -0.159247 0.10147
134 2 5.05719 20.6978 12.0828 0.0559479 0.0790358 0.0920311
135 2 9.55183 19.6978 12.6168 0.260184 -0.0494317 -0.0623696
136 1 10.5168 16.0538 20.3773 0.139881 -0.236732 0.223707
137 1 11.3668 18.4593 17.8516 -0.112887 0.141343 -0.151138
138 2 11.2072 17.9239 15.4423 0.0058696 -0.0106411 -0.0961725
139 2 10.4597 20.6909 19.48 -0.00777023 0.105261 0.022972
140 2 13.1203 15.4317 20.9042 -0.0218287 -0.153256 -0.0372649
141 2 9.92523 16.7159 18.7057 -0.0631512 0.106753 -0.17139
142 2 13.0661 18.2373 19.0052 0.0836582 -0.135562 0.14898
144 2 9.36933 14.153 20.7014 0.0760789 -0.216023 0.11357
154 1 15.5822 21.1302 14.4957 -0.0353643 0.0120589 -0.0838246
155 1 18.6095 24.8814 14.4266 -0.0637945 -0.121525 0.507817
158 2 17.756 21.1292 15.6221 0.179453 0.0647154 0.198006
159 2 17.9301 23.7591 12.239 -0.00564648 -0.0958025 -0.176764
160 2 19.7382 23.8265 15.7691 0.223774 0.0873424 -0.216394
161 2 14.4032 24.0549 14.3095 -0.0571672 0.01052 -0.014249
162 2 16.0336 20.1899 12.3784 -0.0127831 0.0819176 -0.29007
163 1 1.10165 16.6578 20.5381 -0.191507 -0.101245 -0.0745396
164 1 5.44351 17.8227 19.0362 -0.0638128 -0.00704114 -0.0608171
165 2 7.74204 18.2741 18.1047 0.146532 0.150051 0.0565142
166 2 6.04123 19.4907 21.0142 0.136267 0.0473225 0.168154
167 2 2.29237 15.7991 20.7561 0.0977314 -0.209959 0.0578987
168 2 3.51325 17.6952 18.4553 -0.211066 0.0308516 -0.136537
169 2 5.76235 15.4876 20.4626 0.135968 -0.0484338 0.0053717
170 2 1.08937 18.5735 20.3584 0.0755863 0.0803423 0.0990143
171 2 0.216764 16.1537 18.1668 -0.109189 0.059539 0.0686657
172 1 7.44713 21.7007 15.2674 -0.237983 -0.138226 0.177052
173 1 4.64288 23.0716 17.4453 0.00533575 -0.0146788 0.141834
174 2 3.80003 25.2297 17.7734 -0.130795 0.0441196 0.13066
175 2 4.43268 21.1377 16.4402 0.117344 -0.222161 0.0265861
176 2 9.76583 21.8685 15.8955 0.152109 0.0636337 0.0807799
177 2 6.23548 24.07 15.5888 0.028865 0.112771 -0.128773
178 2 6.88404 22.9525 19.2333 0.0901315 -0.0526646 -0.0468388
179 2 6.78607 19.5852 14.6871 0.0645331 -0.130644 -0.0348625
188 2 5.05888 24.9013 12.2954 -0.0893743 -0.0428285 0.0718584
198 2 2.13361 22.6119 19.6918 0.00872018 0.019722 -0.0281481
229 2 19.5492 13.7318 14.6186 -0.0316576 -0.106996 -0.186389
230 2 3.00602 13.3224 12.9946 0.0171707 0.0392319 0.067257
261 2 18.637 13.8202 20.6726 0.0106473 0.203433 0.265435
268 1 16.9612 23.0992 18.8063 -0.0831109 -0.281267 0.124321
269 2 15.5288 25.1213 20.4133 -0.0624354 -0.0709271 0.0953335
270 2 15.9276 23.8586 17.0218 -0.157048 -0.00953931 -0.17303
271 2 18.5369 23.93 19.0337 0.20393 0.0219313 -0.10596
272 2 14.8592 21.7361 19.6211 -0.0982321 0.0643303 -0.108631
299 2 4.63817 17.3063 10.7153 -0.136341 -0.0320991 -0.175413
302 2 8.63201 16.1997 12.2196 0.154994 0.0688218 0.20799
303 1 17.602 19.0608 19.7022 0.168314 -0.0601523 0.225109
304 2 15.9696 18.8993 19.4887 -0.142392 -0.140207 0.0441671
305 2 17.132 15.4313 17.6127 0.146982 -0.22769 -0.0443716
306 2 18.9004 20.7661 20.1522 0.120816 0.137081 -0.00977727
307 2 18.8484 16.8808 20.5782 -0.0238596 -0.0340514 -0.00423423
310 2 12.4133 23.5117 20.7196 0.0353948 -0.0377124 -0.049047
325 3 8.24965 15.3091 19.3217 0.048641 0.0387898 0.058157
330 3 19.4535 14.3554 16.7066 -0.0274999 -0.130192 0.0478116
334 3 14.5667 18.9642 15.1305 -0.0579734 -0.100309 0.0438128
335 3 6.71392 22.7467 11.1571 -0.0694464 0.113925 -0.0727145
339 3 12.9883 21.418 17.7261 -0.0447206 0.0788395 0.0173122
348 3 4.1946 18.3974 12.985 0.0288053 0.112233 0.195738
350 3 9.92022 18.3282 20.1471 -0.0852773 0.0195947 -0.183118
353 3 11.8737 15.9922 17.7501 -0.144094 0.221171 0.249945
364 3 18.4912 23.059 17.0629 -0.051348 -0.0300265 -0.133784
366 3 5.72089 15.6267 12.9356 0.153641 -0.145769 0.0388778
369 3 9.24622 15.1708 10.8167 0.0765938 -0.129748 0.00965966
375 3 9.00055 20.076 14.7591 -0.181448 -0.0482958 -0.0260593
379 3 16.3632 17.0744 19.9285 -0.043686 -0.0876856 -0.0367823
380 3 3.81175 24.1652 20.3413 0.0154667 -0.0283685 -0.023103
381 3 15.3727 14.7491 16.6143 -0.0152419 -0.0853743 0.0814498
393 3 6.55656 21.1912 17.9566 -0.0898952 0.110578 -0.160363
394 3 0.386597 18.0551 11.7279 0.122411 0.0393112 -0.0064713
400 3 12.0451 20.6324 13.6157 0.0808002 0.0387991 -0.00326764
401 3 1.07454 14.2221 19.9553 -0.0178623 0.250248 0.114813
406 3 3.40016 19.6996 18.806 0.0844221 -0.0575469 0.00285509
407 3 9.24946 15.5623 14.2876 -0.125771 -0.0785899 0.0501474
409 3 0.649049 24.0047 13.9032 0.0460817 -0.122817 0.0880617
412 3 17.7754 20.0414 13.7587 -0.0577542 0.144762 -0.0436485
356 3 13.5349 15.0296 11.3895 -0.13919 0.186288 0.0026288
422 3 1.49397 14.9808 13.4519 0.0301988 0.0678176 0.0651299
423 3 6.2933 17.765 16.6241 -0.0302558 -0.0743846 -0.148632
430 3 14.8702 22.5853 12.4804 0.0287449 -0.0679112 -0.0469547
437 3 7.68417 18.2375 11.8946 0.121093 0.295911 0.16319
447 3 16.4719 20.4053 18.3921 -0.0253203 0.149883 -0.407395
462 3 18.9642 13.2673 11.9648 -0.0393239 -0.0633546 -0.152847
456 3 11.9685 13.6309 15.1519 0.0357499 -0.0531312 -0.0901342
458 3 5.00422 22.3554 14.6698 -0.00288862 0.0253515 0.216104
467 3 2.14497 18.0385 15.9484 -0.0712054 -0.0354241 -0.0040642
469 3 10.7759 24.6934 20.4906 -0.0645126 -0.0288263 0.116011
479 3 5.67401 12.9328 14.8341 0.0555454 -0.0141884 0.0969934
480 3 17.9008 17.263 16.2262 -0.0759918 0.220141 0.218159
298 1 7.13988 16.4795 10.7941 -0.120242 -0.443394 -0.11207
231 2 2.71967 12.5249 16.7425 0.227293 -0.0158652 0.101745
421 3 10.2495 20.632 10.6641 -0.202712 0.0238138 0.0788781
ITEM: TIMESTEP
200
ITEM: NUMBER OF ATOMS
483
ITEM: BOX BOUNDS xy xz yz pp pp pp
-6.9156184803610099e-01 2.0226486103956539e+01 2.5554735119469492e-04
-8.8563586524937143e-01 2.5902504545553345e+01 -1.1378749576796916e-04
-7.4997062899995370e-01 2.1938132042746979e+01 -1.4034590205009957e-04
ITEM: ATOMS id type x y z fx fy fz
7 2 9.00612 11.1474 9.26702 -0.0714841 -0.00166354 -0.052631
46 1 4.49093 9.78354 1.3664 0.0994751 0.231213 -0.133095
193 2 1.09567 0.119151 -0.437173 -0.109517 0.00126056 -0.0544438
49 2 18.8676 11.2743 3.2048 0.0172791 0.0399463 -0.051336
50 2 4.78324 10.7596 4.62005 -0.101003 0.00497036 -0.103523
53 2 0.63626 10.5894 0.00561142 0.0272684 -0.0543436 0.0240612