ITEM: TIMESTEP
5100
ITEM: NUMBER OF ATOMS
483
ITEM: BOX BOUNDS xy xz yz pp pp pp
-9.6230535817147889e+00 2.9158098894395376e+01 4.7377369123028046e-04
-1.2323650068980161e+01 3.7340398899996750e+01 -2.1095707560188571e-04
-1.0437297821514596e+01 3.1625459235274320e+01 -2.6019520747315504e-04
ITEM: ATOMS id type x y z fx fy fz
90 2 24.3582 -11.7038 -7.06952 0.0173299 0.0150043 -0.0274471
326 3 8.46131 -12.412 9.93963 0.113252 0.0464062 0.161216
208 1 4.60365 -10.6647 -3.15924 0.153016 0.106123 -0.00223449
252 2 -8.80948 -11.4922 9.05853 -0.00384648 0.00491115 0.002644
476 3 3.23244 -9.09509 -4.17295 -0.0799785 0.0439276 -0.042672
253 1 7.23079 -8.62703 -6.11936 0.0115851 0.329124 0.132868
139 2 13.2661 -9.25226 -2.65342 0.000611775 -0.000153099 -0.000274045
214 2 -2.80977 -9.83136 1.65565 -0.0012234 -0.020422 0.0279136
99 2 2.15365 -9.78138 5.20255 -0.00567221 0.00104941 -0.000922093
444 3 6.54301 -8.3249 -3.44562 -0.0215748 -0.147139 -0.0422779
158 2 9.2459 -11.7329 1.66254 0.000472636 0.00121549 0.00213215
481 3 12.2443 -1.73584 -10.184 0.0331546 -0.00563331 -0.0510276
322 2 12.5167 -11.2974 -9.53231 0.023063 -0.00400226 0.000497509
374 3 7.30748 -10.9119 -5.81069 -0.00993906 -0.152355 0.00534517
289 2 26.2624 -11.1963 5.56009 -8.02388e-05 0.0205031 0.00269215
183 2 0.014426 -12.4334 1.64794 0.00508344 -0.00103432 0.00482254
129 2 18.2994 -10.4981 -4.89744 -0.00265285 -0.00733866 -0.00362228
290 2 26.662 -8.40481 8.9263 -0.000946185 -0.00456946 -0.0045709
12 2 21.6626 -12.1023 3.04016 0.00430046 -0.00345707 -0.00152234
131 2 4.07741 -11.0727 -10.2123 0.0279015 0.00313525 0.00173796
117 2 -9.27592 -0.221402 -5.59765 0.00315398 0.00580909 -0.000807244
273 1 -1.19982 6.31718 -8.85711 0.0711033 0.0457722 0.0174191
434 3 7.65116 -3.673 -8.35107 0.0214899 0.117044 -0.0793317
109 1 7.5121 -2.0576 -10.1601 0.150802 0.0127344 0.060393
189 2 20.1197 -7.56065 -3.01014 0.000848164 0.00329269 0.000500788
14 2 -9.56274 -2.57328 6.46655 -0.00837653 -0.0268329 0.028812
209 2 25.4747 0.928763 5.89367 0.0257421 0.0160698 -0.00892926
163 1 -3.39501 10.9847 -2.85705 -0.0720443 0.13472 -0.000334421
47 1 -1.75378 10.1859 -7.77083 0.0959699 -0.0559558 -0.00413477
254 2 20.4999 -2.19668 -3.60534 0.00312935 0.00188189 -0.0039323
256 2 26.9576 -2.76874 10.3959 0.00333014 0.000191955 -0.00491689
286 2 -0.253377 -6.62806 6.9157 -0.000617662 -0.0122638 -0.00294331
297 2 5.32549 -2.48062 3.94038 -0.00297077 -0.000578551 0.00227885
221 2 -5.54347 -4.52889 8.2677 -0.00559137 0.000702159 -0.00412607
5 2 7.60176 10.0573 2.5549 -0.00036771 -0.000206972 0.000198573
417 3 6.52966 -6.04811 -5.93384 -0.119166 -0.153014 0.00209906
280 2 3.09087 7.51498 4.99389 0.0035335 -0.0033541 0.00303145
387 3 -2.49638 11.4226 -9.58651 -0.0239989 0.0207174 -0.163587
224 2 11.2397 6.37971 -9.02993 -0.00759055 0.0092291 0.000750201
284 2 20.4955 4.07443 -1.70675 -0.0043349 -0.000343222 -0.00115341
198 2 -4.47437 4.63146 -9.11365 -0.0478814 -0.0103051 0.000957351
483 3 13.937 -5.6598 -8.25382 -0.122435 -0.0385491 -0.00476507
168 2 21.9813 11.434 -4.9347 -0.00771735 -0.0105064 0.00538672
245 2 12.0147 10.4781 -7.129 -0.0184677 -0.0173722 -0.0525804
49 2 -6.92833 -4.46955 3.94058 0.00449244 0.0022462 0.00190128
50 2 4.68304 3.43935 -4.58017 -0.00886226 -0.00205558 0.00381982
362 3 -3.3082 10.7412 -6.13739 -0.0520239 0.00960809 0.283085
97 2 8.5479 0.957984 8.52776 -0.00574972 0.0107557 -0.00884926
365 3 9.52746 -6.38419 -6.83781 0.112239 -0.0107794 -0.0885105
61 2 20.4018 4.05865 6.73377 0.00111301 0.00604341 -0.00059642
63 2 22.8211 0.51169 -6.89736 -0.0147852 -0.0305806 0.0262632
261 2 -8.40099 4.98597 3.10378 -0.0381817 -0.00382674 0.0166637
66 2 -0.0265271 0.445564 6.60149 0.000536256 0.00258137 0.00247976
100 1 7.95768 -4.08665 -6.04701 0.0292535 -0.156466 -0.135107
68 2 23.3477 2.97855 -8.81341 0.00712938 0.0319363 -0.0217826
104 2 10.3581 -2.85746 8.16124 -0.00062438 -0.000474336 -0.0020675
106 2 -8.23233 3.64178 -8.96605 -0.00589286 -0.0035274 0.00529292
93 2 21.1185 8.76079 6.32758 0.0225308 -0.0207769 -0.000197936
88 2 -2.8357 -7.88964 -0.852695 -0.00403011 0.0265461 -0.0295506
13 2 20.3183 -2.65562 1.19176 0.0200564 -0.0365583 0.0215269
24 2 -8.97542 0.00758914 4.55679 0.00151094 0.031035 -0.019803
113 2 14.3673 4.85653 -7.80899 0.00163569 -0.00309952 0.0109985
114 2 -2.99957 -2.39174 6.10906 0.00088081 -0.00214427 -0.00131723
115 2 15.1532 1.01559 6.65226 0.00106748 0.00131635 0.0196798
116 2 2.35208 0.792977 -1.26318 -0.00498954 0.00211482 -0.00313
357 3 17.4558 11.147 6.4409 -0.00103017 -0.0237987 0.0440323
126 2 -0.108077 -2.39397 1.08973 0.00344759 0.00452463 -0.00311291
145 1 11.4844 -6.29264 -8.69288 0.0184718 -0.0307486 0.186543
239 2 19.0103 -0.292106 -0.245239 -0.0211045 0.0431743 -0.0206924
471 3 8.63748 -3.48055 -3.9996 0.044554 0.0571784 0.124946
149 2 -6.2896 -3.97511 -1.34175 0.00190614 -0.00272484 0.00283969
229 2 27.6392 8.68309 3.57648 0.00163009 -0.0101352 0.00292464
456 3 16.069 12.3518 3.6781 -0.0768393 0.100641 -0.134772
57 2 16.9061 4.44417 -10.4839 0.00554702 0.0020014 -0.0193721
368 3 -0.141395 8.47053 -8.32713 -0.090768 -0.0339907 0.00911914
416 3 13.2789 10.9816 -3.90812 0.0206118 0.0330733 0.0816833
204 2 15.4759 0.455751 3.3181 0.00548577 -0.00464753 -0.025035
207 2 22.9815 -6.50266 7.56436 0.00307685 -0.00546207 0.00637495
60 2 18.684 3.62077 -7.25145 0.00889774 -0.00330921 0.00838199
442 3 0.0899022 4.40743 -9.4793 0.176949 -0.0570489 -0.15771
418 3 -1.04683 11.4557 -2.13771 -0.0593433 -0.0457994 -0.0566116
200 1 14.9595 11.2808 1.49106 0.189639 -0.0297551 0.0698958
401 3 -4.6679 9.0063 -2.07425 0.0538084 0.0814201 -0.0448153
219 2 -5.46735 5.51324 1.84106 0.0301142 0.00182943 -0.00958818
220 2 27.663 3.15066 -1.5442 -0.00113206 0.0010157 -0.00635104
48 2 19.1584 8.01373 -3.80766 0.00634681 -0.00082448 0.000883273
222 2 19.4161 -1.61713 7.84444 -0.00749523 0.000368049 0.000486403
346 3 15.8854 9.15895 3.14661 -0.0621248 0.0501352 -0.119788
274 2 8.20418 2.88736 -3.07583 0.00378074 -0.00048793 0.00143868
264 2 27.2277 -7.56813 -6.59777 -0.00254958 -0.00370512 -0.00053335
265 2 25.9341 -1.52429 -6.09925 -9.54365e-05 -0.00355793 -0.00155157
266 2 26.2096 4.9611 6.14256 0.00474535 0.000810783 -0.00646867
267 2 -0.434485 3.65981 -3.41983 0.00666219 -0.00392178 0.00218804
299 2 1.25838 -3.26494 6.98369 0.00653723 0.00847999 -0.00057451
230 2 22.7373 11.7495 8.46082 0.002854 0.00252146 -0.00306531
295 2 26.4854 4.00917 -5.76334 0.00194603 -0.00552949 0.000769125
201 2 23.0141 -0.973915 7.04752 -0.0138982 -0.0139966 0.0079255
384 3 11.0141 -4.86883 -10.4994 -0.0182621 -0.0369032 -0.0480732
84 2 24.7365 11.2537 -7.42136 0.00664538 0.00385661 -0.00877778
132 2 5.7858 4.48 7.72834 0.00176584 -0.00243347 -0.00209301
457 3 6.8065 0.153355 -9.30067 -0.0265637 0.0187916 -0.0472705
356 3 16.3559 12.3515 -0.562314 -0.00329663 -0.0684237 0.0537344
285 2 -4.42249 -1.30394 -9.47268 0.000611499 0.00142607 0.000940259
96 2 14.7 2.6878 10.0301 -0.000392718 0.000943118 0.00277578
181 1 12.4023 -10.6981 16.3698 -0.320329 -0.221411 0.00794735
249 2 20.1646 -10.1841 13.3258 -0.0393755 0.00192017 0.0582651
251 2 -5.91706 -12.2239 31.1459 -0.0032491 -0.00546109 -0.00220184
395 3 17.3363 -9.2789 18.4371 -0.113487 0.0182749 0.108833
316 2 -7.98366 -8.78575 12.3896 -0.00323323 -0.00751119 0.00215886
216 2 28.9342 -12.0848 15.0148 0.00593592 0.0060757 -0.000455167
463 3 10.698 -8.85027 18.2454 0.110496 0.0337472 -0.107357
454 3 13.0126 -11.8065 10.604 -0.112248 0.00552913 0.083318
105 2 4.06785 -8.61132 26.1055 0.0090374 -0.00660541 -0.00280859
263 1 15.669 -8.78995 20.5621 0.148023 -0.335804 0.00369792
431 3 13.8048 -10.8242 20.6969 0.121032 0.163609 -0.0463401
205 2 0.821351 -11.4358 31.4445 -0.0296641 -0.00351764 -0.00526216
156 2 -2.38887 -4.16253 24.9477 0.00471861 -0.00668095 0.000860669
443 3 14.0261 -9.29839 15.9579 0.268899 0.240182 0.020698
272 2 16.2059 -8.19094 28.7345 0.00207816 0.000910487 0.000947496
213 1 9.92962 -11.6624 12.1067 0.0148268 -0.0469098 -0.118987
344 3 11.7422 -10.5745 13.5903 0.16819 -0.248393 0.212685
196 2 10.4041 -9.59804 31.3807 -0.0379581 0.0012049 -0.0232117
255 2 0.262978 -9.98545 27.8849 -0.000187029 -0.0404199 0.0323176
232 2 -6.80538 -9.67352 17.0914 -0.00151506 -0.00631422 -0.00831661
451 3 9.28865 -9.26565 12.4586 -0.194326 0.0338799 -0.103705
282 2 -1.77089 -8.97724 23.0254 -0.00258499 -0.000207152 -0.00302595
340 3 17.6947 -9.78949 22.2507 -0.112568 0.0151846 -0.12203
147 2 21.3563 10.9576 27.4595 0.00762118 0.00197762 0.00245678
426 3 -3.50653 11.0544 15.95 -0.0355888 -0.00518236 -0.0550163
327 3 8.66333 -3.46802 22.7682 0.0972175 0.0699986 0.0849495
174 2 0.229302 -7.58449 26.0858 -0.00864707 0.0470247 -0.0319764
358 3 8.97063 -4.79607 17.5732 -0.202403 0.125692 0.12138
182 1 11.3124 -3.56237 22.1231 0.105872 -0.0638662 0.0653037
151 2 19.7451 4.91139 25.6566 0.0016833 -0.0061093 -0.00369279
248 1 10.7242 -6.28383 17.9763 -0.0175524 -0.238308 0.155569
110 1 5.28892 1.24891 29.999 -0.187034 0.231414 0.247739
288 1 9.40676 -3.14837 20.5735 -0.10465 -0.0908138 -0.308922
259 2 19.1261 -2.5512 29.9037 0.000685084 -0.000764069 0.000286329
246 2 19.2168 7.76861 28.0179 -0.0037696 0.0022056 0.00539935
470 3 11.6305 -5.08418 19.912 -0.0244467 0.19743 0.161841
355 3 13.5169 -2.25911 28.3189 -0.0706162 -0.0638519 0.0472302
46 1 1.94647 3.65273 30.6746 -0.011573 0.00228351 -0.0234387
331 3 -6.62355 9.04601 18.4376 -0.0768598 -0.0572967 -0.0148368
378 3 10.8974 -1.36088 21.0374 0.0446474 0.0152141 -0.0170937
473 3 11.739 -5.64355 16.0436 0.231283 0.00535234 -0.23737
448 3 9.02406 -6.25159 24.1168 0.0382318 0.0252334 0.136789
459 3 13.1795 -5.88331 23.6852 -0.0516157 0.169515 -0.0112081
193 2 2.16374 -5.92404 21.3892 -5.98979e-05 -0.00410644 0.00193029
35 2 29.0243 8.54997 27.1461 -0.00365565 -0.00211693 0.00473838
440 3 13.5265 -4.42388 12.6184 -0.00436134 -0.0164256 0.0276791
460 3 -2.50471 10.7984 28.2521 -0.0025716 0.158137 -0.0320053
402 3 13.496 -1.7696 18.2335 0.0438448 -0.12401 0.0216873
53 2 23.2396 2.97746 25.5852 -0.000454327 -0.000299548 -0.000537829
133 2 -5.35387 -4.56151 30.6079 -0.00664394 -0.00336206 -0.00428412
36 2 4.17889 6.12242 13.3872 0 0 0
64 1 8.99211 -3.77171 25.3281 -0.0651747 -0.0328453 -0.0948229
296 2 27.0067 0.287682 21.9423 -0.000116443 0.000124242 -5.03514e-05
69 2 5.54502 -1.52273 16.7579 -0.00787964 0.00834209 -0.00131421
210 2 20.6766 -6.18227 30.7709 -0.00242621 -0.00016331 -0.00113956
82 1 -5.52213 10.7 17.1976 0.0864898 0.215062 0.105431
85 2 12.0514 7.98615 24.0913 0 0 0
87 2 23.9107 -5.58026 17.1157 0.00449025 0.0031419 -0.0019056
184 2 27.3176 -3.06211 15.619 -0.00811867 0.000290064 -0.00142841
89 2 -0.437944 -3.00015 21.591 -0.0021431 0.00186451 0.00071811
91 1 14.439 -4.1411 19.3923 0.0390363 -0.04883 -0.231816
95 2 10.1793 -0.778142 11.7408 -0.00462273 0.00495167 0.00533889
420 3 -6.07089 -0.68199 16.8033 0 0 0
334 3 -1.27481 11.527 21.3819 0.148588 0.0300329 0.136859
122 2 8.02362 4.11508 17.5495 0 0 0
432 3 12.0042 -1.77552 24.77 0.0366455 -0.179831 -0.11558
146 1 11.785 -3.37061 29.8611 -0.0566808 0.153363 -0.13629
187 2 27.7815 4.46136 30.3044 -0.0286829 -0.000870395 0.0149684
465 3 5.13251 3.71595 28.9035 0.0688345 -0.087427 0.0928655
86 2 24.5271 -4.41523 25.1792 0 0 0
203 2 -9.13234 -5.89843 28.4567 0.00603229 0.00195408 0.00334495
429 3 -5.20583 6.83722 21.7665 -0.0242171 0.154082 -0.0836522
228 1 -8.09976 11.3517 21.5268 0.121478 0.184441 0.0418756
376 3 5.73724 -2.36745 30.4419 -0.152821 -0.0153795 -0.118967
238 1 -5.73253 9.42971 20.5403 0.22275 -0.135979 0.0775666
242 2 11.7402 12.1931 15.1684 -0.00739871 0.00125222 -0.00315267
404 3 -3.61749 11.287 19.4099 -0.325722 -0.145994 -0.0946497
383 3 14.502 -3.07519 21.4634 -0.0955319 0.0180873 0.164224
332 3 2.15666 3.4262 27.786 -0.139197 0.00233867 0.15791
98 2 6.05931 -1.17625 10.9594 0.00807299 -0.00351877 0.00167421
278 1 13.7409 -3.37857 23.8717 0.117457 0.00624756 0.0569022
279 2 24.4818 3.71053 17.9355 -0.000194696 -0.00536969 -0.00367676
94 2 2.57299 -0.0236645 10.9935 -0.0118335 0.00136888 -0.00425195
281 2 24.7483 -0.83431 31.2141 -0.000563164 0.00192024 0.00472754
397 3 9.32079 -2.33878 29.8431 -0.0571338 0.0195587 0.0884361
292 2 -4.25129 1.26997 25.6587 2.24835e-05 -0.000206851 1.54263e-05
408 3 7.23887 0.796514 28.9852 0.166815 -0.169728 -0.146747
318 1 7.22029 -1.79928 28.5874 0.0153747 0.0902851 -0.158468
320 2 -8.16359 4.60233 28.5217 0.0236856 0.0059574 -0.0175609
472 3 28.6208 11.0053 20.5997 -0.09505 0.0833398 -0.0115589
455 3 16.141 -2.9989 24.5035 -0.045741 -0.00324923 0.0479248
262 2 25.539 10.6653 28.7853 -0.00127107 0.000862993 -0.00205624
336 3 16.6024 -3.88905 17.3827 -0.156729 -0.0286846 0.109959
338 3 18.6845 -3.89254 20.2899 -0.031499 -0.00168741 0.0380842
351 3 10.558 -4.10921 27.2647 -0.00145085 0.00602582 0.0158256
352 3 -4.3819 10.5645 25.4651 -0.0259643 0.0198626 0.00136368
409 3 15.0238 -6.61919 20.1655 -0.0401213 0.20596 -0.0741664
185 2 24.3922 0.0632899 15.398 0.0036483 0.0020265 0.00410891
371 3 -6.25087 10.2658 22.6921 -0.0771722 0.064633 -0.0555917
435 3 3.78409 2.45917 31.9554 -0.0126827 -0.0548576 -0.143082
373 3 6.80719 -1.99575 25.888 0.187803 -0.118869 0.161949
215 2 21.6529 -9.74753 11.0436 0.0420187 0.02134 -0.0669072
468 3 11.2036 33.0068 -2.50035 -0.0128512 0.0372685 -0.0766949
3 2 9.56504 21.3639 9.26919 0.0116977 0.0220287 -0.0260204
4 2 1.76609 34.8691 8.05231 -0.0044593 -0.00452377 0.00574654
10 1 7.91729 36.3706 -5.83164 -0.0789833 -0.00908513 0.0935213
11 1 10.4961 34.3656 -4.44032 -0.083118 0.0712597 0.137224
462 3 9.80086 13.8012 -1.6153 -0.0572767 -0.0995046 -0.04506
170 2 18.1405 29.4672 -7.63662 -0.007236 0.014282 -0.0119561
225 2 -4.89774 13.5179 3.41664 -0.00841489 -0.00326447 0.0372407
15 2 6.05299 26.6534 -2.58077 0.012429 0.00793495 -0.0330863
218 1 4.31715 34.4452 -4.4504 0.0275229 -0.0201072 0.213559
294 2 15.8587 20.1812 8.00577 0.00672023 -0.00877316 0.00439017
161 2 1.6995 23.5051 -9.63387 0.00696565 0.00622595 0.0267469
19 1 23.6812 23.6542 -3.01256 0.023636 -0.140027 0.149848
20 1 21.5932 21.0044 0.644779 -0.0926282 -0.120128 -0.0106307
393 3 -3.57575 21.5959 -4.79271 -0.139447 -0.0378433 -0.0755128
22 2 7.25384 27.6453 9.39343 0.000995832 -0.00140079 -0.000490744
23 2 -0.886639 31.8448 9.61565 0.00869815 0.00761638 -0.00197383
317 2 -1.74308 35.8738 -5.29111 -0.023126 0.0107715 -0.00706139
436 3 16.1221 17.231 -2.1074 -0.238251 -0.0838226 0.131961
26 2 27.6482 33.5504 -4.93185 0.00702219 -0.0103533 -0.00568154
169 2 5.09565 29.9501 0.31824 -0.00597328 -0.0169283 0.0271191
458 3 -6.69081 21.2126 -1.92177 0.0107246 -0.154548 0.102128
32 2 18.6285 13.5672 -9.86017 0.00141286 0.00410245 -0.000746101
150 2 -1.37008 17.6751 7.03907 -0.000195843 -0.000644524 0.00865822
29 1 14.9539 14.3665 2.89329 -0.0605457 0.077691 -0.0162045
56 1 18.1523 21.3424 -0.397718 -0.101672 0.0338053 0.076835
478 3 -7.89294 14.7266 -2.24129 0.00545037 0.0557416 0.0445105
363 3 -0.449395 24.6415 1.72499 -0.0160271 -0.0633216 -0.0625753
450 3 -3.96966 12.937 -0.751397 0.0494823 0.0183256 0.0962104
180 2 24.0849 19.3882 6.86837 0.0445153 0.0293636 -0.0240946
119 1 18.4935 17.3912 -3.21719 -0.0399709 0.0732301 0.159963
79 2 28.8232 25.7754 8.67344 0.00215779 0.00376538 0.000466561
62 2 11.6255 25.3011 4.63975 -0.000922235 -0.00180566 0.00563843
345 3 4.29086 36.7033 -2.79 0.0298341 -0.130426 -0.092963
411 3 12.5262 15.8891 -1.941 0.0965165 -0.0867615 -0.15949
212 2 26.8784 36.6789 -2.75371 -0.00348347 0.00199602 0.000974792
466 3 13.5232 13.2253 0.958179 -0.0803653 0.0475853 0.118001
102 2 19.2394 34.9078 -1.96298 -0.00295342 0.00360074 -0.00898162
190 1 -4.4496 28.073 2.96497 0.00854242 -0.00417447 0.00392177
191 1 -2.61681 24.3457 0.402104 0.147323 0.0642162 0.0213041
398 3 5.9037 32.68 -2.78518 -0.138693 0.0828035 -0.107834
477 3 19.3741 19.376 1.47365 0.110814 0.169499 -0.0747045
194 2 -8.84854 33.3192 5.63303 0.000996103 -0.00101522 -0.000575512
293 1 14.5439 18.7541 -0.163363 -0.0621557 -0.234132 -0.152953
211 2 19.6106 36.2655 10.0828 0.0124583 0.0007002 -0.00581408
107 2 20.7409 17.1889 -10.0822 0.00548441 -0.00288471 0.00459308
223 1 -5.48757 14.8795 -1.75239 0.0494988 0.0410139 0.0805149
315 2 -3.90939 25.9064 -6.75783 0.015231 0.041568 -0.0465599
349 3 10.1556 15.707 1.28235 0.147213 -0.0647334 0.00504083
140 2 -8.4147 29.5736 -4.0659 -0.00165912 0.00201208 0.00355407
382 3 1.95083 34.0614 -4.01283 0.0904413 -0.019067 -0.0202649
233 1 17.2116 25.4204 0.225506 0.0224242 0.0300676 -0.186814
141 2 13.7876 23.1654 7.51197 -0.00953583 0.0120872 -0.00131152
234 2 24.9949 14.5072 -10.087 -0.00291735 -0.00459378 -0.000282854
27 2 -0.360521 22.5652 9.17149 0.00250078 -0.00209997 -0.000888739
171 2 -6.78753 28.2957 -8.90975 0.0114081 -0.0189901 -0.00395379
243 1 -2.7452 17.2886 -1.77305 0.121188 0.111667 0.11578
45 2 4.93423 25.9555 0.392873 -0.0115546 -0.0130311 0.03256
474 3 21.1752 27.9671 -4.4733 0.00390034 -0.0639658 -0.0116791
30 2 20.1847 28.0589 8.03514 -0.0014419 0.00246972 0.00257608
247 2 -9.01624 30.7705 -7.75509 -0.0185496 0.0204318 0.00199809
329 3 13.9081 16.6049 1.17615 0.143722 -0.0692831 0.101419
377 3 18.0278 19.4815 -1.99179 0.153332 0.187787 -0.0220121
275 2 7.2643 14.6157 -9.93737 -0.0166533 0.0082084 -0.0068223
81 2 25.4551 33.9262 3.03764 -0.0116566 -0.00327914 -0.0239671
277 2 10.2857 13.6305 -8.28329 0.00817116 0.0044645 0.00651612
283 1 -4.83549 19.1063 -0.864179 -0.188927 0.0044949 -0.0874367
469 3 24.2714 24.9741 -4.87423 -0.00453187 -0.0130013 -0.088936
167 2 23.2062 19.191 -6.78373 -0.00358881 -0.00261745 -0.0047459
414 3 22.7753 22.0133 -1.33308 0.0126125 0.0509385 0.0153627
287 2 14.8153 35.3898 3.158 0.000415678 -0.00575201 0.00149954
152 2 -1.63269 15.0943 -8.25534 0.00382191 0.0334124 0.00522501
300 2 3.34653 23.952 6.7965 -0.0794303 -0.0179775 -0.0170906
304 2 20.602 31.8109 -10.2232 -0.00275811 0.0029543 0.000832334
308 1 21.8922 25.5974 -4.50939 0.00724211 0.14633 0.0159533
202 2 26.3708 35.0271 6.24629 0.00343733 -0.012536 0.0222337
311 2 22.9557 36.8972 -4.34562 -0.0212615 -0.0168097 0.0349125
172 1 -1.73649 21.7264 -3.52341 0.262418 -0.126568 0.0873062
323 3 19.0958 23.8908 -0.665941 0.0610742 -0.109364 0.0737261
328 3 -4.45401 16.8933 -0.0712512 -0.0536292 -0.203704 0.0317054
333 3 20.9613 22.1611 2.83819 0.0578963 -0.00942571 -0.111167
337 3 11.1427 17.3031 4.27592 -0.126282 0.132857 0.110073
341 3 0.748311 21.3904 -3.88289 -0.12864 0.0216916 0.0204341
206 2 25.4397 15.0667 5.87463 -0.00421263 0.00366726 0.000377784
343 3 22.3266 25.4205 -2.066 -0.0954904 0.0325828 0.0443412
347 3 17.4255 27.7235 -0.992827 -0.00243342 -0.166157 0.079573
389 3 16.1925 19.6213 1.0807 0.0820386 0.200815 0.0194819
197 2 15.364 37.2666 -8.26118 0.0237297 -0.00541443 0.0138392
452 3 -5.15231 13.0078 -3.36715 0.0474018 -0.120116 -0.254892
361 3 -3.02327 29.7638 3.78677 0.0555303 0.0356239 0.0782362
461 3 21.5338 18.8062 -1.05944 0.0108093 0.0264721 0.0273874
40 2 24.669 25.1388 6.95607 -0.0100822 0.0144007 -0.00643295
370 3 -1.12066 18.8615 1.89626 -0.0359143 -0.0108694 -0.0530213
217 2 5.88504 24.4148 7.55934 0.0748981 0.0137721 0.0241033
375 3 -5.68463 24.134 -3.85285 0.0143444 -0.0514351 0.12941
392 3 -4.40871 17.9376 -3.23417 -0.167182 -0.0564415 -0.122527
396 3 -2.95626 20.3322 -1.41043 0.130581 -0.00264835 -0.0536801
464 3 8.15001 35.2188 -3.03531 0.138973 0.0430314 -0.206977
403 3 10.3096 36.3784 -5.95611 0.020467 -0.11057 0.0417621
410 3 15.9297 23.4818 -1.02079 0.019257 -0.0697733 -0.000500743
427 3 17.5417 17.3316 -5.30477 -0.0251719 0.0211725 -0.199309
270 2 24.7834 32.5464 8.86888 0.0116431 0.0112496 -0.0122093
380 3 -1.90224 23.2756 -1.80944 -0.139611 0.234264 0.21233
425 3 16.3542 24.4929 2.23562 0.0110825 0.0176871 0.087357
309 2 20.1357 32.6708 -5.2136 -0.00445428 0.00721709 -0.00823514
118 1 11.7775 14.2829 -0.368688 -0.0459042 0.0323475 0.112086
433 3 19.0607 15.1717 -2.71805 0.0504751 -0.0738396 0.0497254
441 3 -3.37164 26.3083 1.82735 -0.018038 -0.126226 -0.0775609
240 2 12.6467 30.793 2.94875 0.00174198 0.00360044 0.000220308
445 3 -5.41017 29.3058 1.19113 -0.0969486 0.0463414 -0.0775536
54 2 0.697556 17.8222 -7.21656 0.00991925 -0.00261645 -0.0156446
42 2 21.8559 17.8434 8.13664 -0.0470381 -0.0274195 -0.006468
269 2 22.4854 34.691 -0.0760861 0.0127986 0.00398576 0.00862218
390 3 6.06733 34.7159 -6.08026 0.0348962 0.0737013 -0.00281235
419 3 12.2343 18.6543 -0.726961 -0.0419205 0.230391 0.00554027
55 1 12.3156 15.9556 2.81219 -0.0450173 -0.0624067 0.00329554
173 1 -4.59947 22.2087 -2.29054 0.151728 0.12202 -0.217461
166 2 26.2365 24.6993 -9.20317 -0.0285389 -0.0142014 0.0107162
59 2 -0.215792 12.601 8.92015 0.026078 -0.00302749 -0.0195348
438 3 13.909 15.5463 4.98139 0.0470076 -0.100625 -0.211547
195 2 9.9879 17.9198 -5.59101 -0.00600288 0.00169901 -0.0140839
58 2 18.1693 32.3541 5.7165 -0.00514119 0.00354364 0.0108454
8 2 26.605 22.5189 8.50379 0.0014303 -0.0244672 0.00657303
6 2 26.3149 17.6537 1.59978 0.00107925 -0.00249841 0.0045595
179 2 17.262 25.4109 9.60756 0.00174259 0.00583416 -0.00244423
127 1 16.4838 34.0189 10.2271 -0.0898661 0.0240008 0.0588372
1 1 0.565442 21.5 21.3997 0.160351 -0.0350535 -0.0979811
482 3 3.39602 21.1567 27.3366 0.0146242 -0.202587 -0.14983
388 3 -2.5131 13.3295 24.2654 0.193248 0.183196 -0.253448
310 2 6.39787 33.1976 19.5758 0.00111083 -0.00314238 0.0053833
276 2 4.60674 18.186 13.0675 0.000836791 -0.000611616 -0.00126936
31 2 14.6118 21.6622 13.0315 -0.025064 -0.0648047 0.00306862
92 1 -6.82901 15.2695 19.1439 -0.0800355 -0.161703 0.0379564
449 3 25.828 29.1515 21.6939 0.163796 -0.0181466 -0.139384
302 2 11.5269 25.3163 13.1032 0.00167314 0.000520804 0.00306178
37 1 8.25659 22.711 20.7038 0.0324568 -0.025613 0.192319
38 1 5.00016 21.8178 21.9842 -0.0968128 -0.0737032 -0.1053
186 2 1.65986 35.1895 13.2279 -0.0194404 -0.0186467 0.00302628
41 2 -2.92502 31.286 15.6229 0.00288367 0.0029288 -0.00227354
479 3 -9.19368 22.214 19.9712 0.0136004 -0.0119058 0.029847
271 2 3.20349 26.1631 26.7916 -0.00514622 -0.00470863 0.00199048
44 2 28.5822 21.9667 14.9554 -0.00888401 -0.000725787 -0.00713422
428 3 5.20881 20.69 19.7201 0.0113917 0.0421271 0.0555061
73 1 26.157 18.7581 26.6747 -0.14321 0.191759 -0.0300603
74 1 23.6626 21.9385 26.3321 0.0891465 -0.0673261 0.0156365
75 2 15.579 27.2308 24.6803 0.0110258 0.00849091 -0.0162555
76 2 15.7032 24.3109 12.9694 0.0212273 0.0547487 0.00207725
77 2 20.7571 35.9734 14.2073 0.000462005 -0.0154621 0.00519148
78 2 24.6898 25.8834 14.4489 -0.00735218 -0.000104495 0.00121412
51 2 1.5182 32.054 30.0591 -0.00310721 0.00453153 0.00300962
80 2 17.5466 22.3701 17.5877 0.0157084 -0.00126459 -0.00333968
125 2 21.582 20.7406 14.3539 -0.00241362 -0.00499171 -0.00312459
121 2 25.2831 19.2 12.1503 0.0433864 0.0318182 0.0199064
415 3 -6.95952 12.9014 18.4606 0.0776296 -0.0826645 -0.0591419
437 3 2.77075 22.6103 21.9796 -0.0999814 -0.000568067 -0.0341583
108 2 3.75216 29.5997 28.2781 0.00337262 0.000543659 -0.00094576
134 2 -1.89822 34.21 25.291 -0.0258749 0.00911796 0.00596539
135 2 21.5004 28.2504 16.3031 -9.36624e-05 -0.00604749 1.67999e-08
136 1 1.73708 16.8621 23.1136 -0.00119603 -0.000516319 0.113853
137 1 3.0729 18.7523 25.8262 -0.0894382 0.0109721 0.051318
138 2 14.1463 22.8131 18.8122 -0.00360461 0.00740322 -0.00182028
2 1 -3.7686 18.8106 19.9814 0.0924351 0.0156045 -0.0278342
52 2 -6.43253 17.4676 15.3591 -0.00584709 -0.00397267 -0.0132171
123 2 22.9083 17.6353 11.2431 -0.0381327 -0.0254497 0.0170055
130 2 1.94253 30.4629 13.9764 -0.00403758 0.00658093 -0.00138701
257 2 16.2727 32.7233 24.5614 -0.00479988 -0.00153757 0.0110441
154 1 22.7626 24.911 23.3566 -0.0151442 -0.116559 -0.0324801
188 2 -1.09244 34.375 17.7994 -0.00443739 0.000364584 -0.00572845
65 1 -1.3521 15.9796 24.4151 0.00402004 -0.0930774 -0.0696192
159 2 27.5357 32.0648 11.7859 -0.000352683 -0.000603298 0.000864438
160 2 -4.13416 22.3865 11.0858 0.00557987 -0.00679794 -0.000602145
298 1 3.51336 24.4424 20.2508 -0.0774429 -0.171439 0.0626393
367 3 -5.65866 17.1259 19.9499 0.14172 0.112575 0.00797272
480 3 26.2504 21.418 27.0149 -0.0763277 -0.058264 -0.0178788
164 1 6.24783 19.7283 24.7073 0.0988849 -0.0379382 0.079129
165 2 18.7848 26.6457 19.5438 -0.0198285 0.020252 -0.0358708
325 3 0.462043 14.5747 23.3627 -0.0163884 0.0631383 -0.133596
319 2 0.985378 35.9965 24.0964 0.0174095 0.0114196 -0.00277613
386 3 27.0776 19.0591 22.591 0.0740108 -0.00459008 0.117717
372 3 -7.91507 14.2235 21.5868 0.0103775 -0.02541 -0.121125
83 1 -5.6636 16.4168 22.2828 -0.1274 -0.021345 0.0694402
101 1 19.8585 36.4735 21.4197 -0.184194 -0.0718414 -0.176191
9 2 28.4562 26.6517 28.49 0.018497 0.0165351 -0.0360311
342 3 2.30463 16.1716 25.4321 0.102422 0.116554 0.0905813
335 3 10.7452 35.7712 16.9484 0.0500401 0.0928399 -0.0174748
175 2 -5.53804 27.2074 24.1314 0.0107855 0.00740234 0.00385751
176 2 22.5999 30.865 11.0522 -0.0130184 -0.0161469 0.00792363
307 2 26.5021 32.326 30.892 0.00922899 0.00041517 0.00175597
178 2 11.2832 33.3706 24.7416 0.00494653 -0.00858629 -0.00117692
67 2 8.93737 12.9813 11.4877 0.00165746 -0.00124836 0.00860622
260 2 18.1271 17.8342 12.4617 0.00879239 0.00484659 -0.00099959
155 1 27.6729 27.3096 23.1489 -0.315369 0.201098 0.211718
360 3 28.9697 26.4089 21.5291 0.0777483 -0.0261961 -0.120259
391 3 23.8914 30.9456 24.2308 -0.192324 0.426507 0.16932
250 2 19.3597 33.6806 27.2888 -0.012306 -0.0121399 0.00254525
268 1 26.6142 28.5575 19.5071 0.176857 0.0428024 -0.0130766
71 2 -3.60105 24.5575 29.6276 0.00295262 -0.00215393 0.000194236
199 1 28.0987 14.314 21.3488 0.15542 -0.0220425 0.141835
394 3 6.15617 24.0085 21.8326 -0.0823407 0.13339 -0.207663
446 3 19.1619 34.1677 20.5124 -0.00951762 0.098452 0.0279907
244 2 -4.38582 31.3994 22.5171 0.00153933 -0.00423771 0.00489279
25 2 25.6223 23.3811 17.7782 -0.00634282 0.00795357 -0.0108174
303 1 22.7173 26.5359 26.626 0.0356564 -0.0843318 -0.0430477
120 2 21.4725 26.3128 11.4945 0.00350505 0.00475529 0.00502897
142 2 18.8643 24.8539 29.7596 0.00242369 0.0013585 -0.00406778
306 2 -8.16365 33.7418 29.6825 -0.00278099 0.00298922 0.00478223
227 2 -0.587718 20.3612 30.788 -0.011343 -0.0173377 0.0109821
453 3 -1.88451 18.7635 18.3699 -0.0618883 -0.0467735 0.0187082
226 2 23.9225 33.7775 20.0539 0.0415969 -0.0180392 -0.0231441
330 3 28.1227 17.737 27.3151 0.0702023 -0.0137923 -0.158767
153 2 8.0418 31.3925 23.1923 -0.000138513 0.00326741 -0.0041721
321 2 1.23643 22.9599 28.9957 -0.0345414 0.0515751 -0.00806394
339 3 4.22799 18.6828 23.5361 -0.0825336 0.123452 -0.128426
348 3 4.63526 26.1448 19.14 0.00830829 0.042598 -0.0305869
350 3 5.31655 17.9754 26.3249 0.1804 0.0250349 0.140556
353 3 -0.196238 18.1895 24.5908 -0.00499405 -0.041796 0.00819564
364 3 28.5715 29.9805 18.5206 -0.135887 -0.101335 0.0607013
366 3 1.33412 18.6963 21.6377 -0.0530858 0.194553 -0.133449
369 3 1.21994 23.1389 18.9963 0.0757772 0.0094437 0.146456
128 1 13.1431 36.8498 13.0473 -0.0516993 -0.0523267 -0.1784
70 2 28.6359 25.447 31.1465 0.0360857 -0.00657947 0.0259727
475 3 -1.66452 21.1758 20.7147 -0.109623 -0.0644124 0.0259062
381 3 21.4391 22.3229 25.3127 0.017194 -0.0112516 -0.0493184
33 2 14.441 17.448 13.8461 -0.00158632 0.00691525 -0.000968499
231 2 27.5096 25.0115 21.4898 -0.0857369 -0.115858 -0.102888
400 3 25.0027 25.7951 22.378 0.0142352 -0.0502936 0.0207484
177 2 -0.434234 31.1033 24.1738 0.00515043 -0.0147406 -0.00571493
406 3 8.50222 20.5089 25.7429 -0.0657041 -0.0770234 0.0327911
407 3 7.02627 21.3328 22.9636 0.155282 -0.159607 0.0194412
424 3 -7.72933 17.8295 22.9296 0.0417624 0.00286506 0.0535257
412 3 23.7793 24.3811 26.4664 0.0241081 0.0475565 -0.0762191
314 2 15.0407 26.856 29.0187 0.0229652 0.00318894 0.0271482
422 3 23.8999 19.4927 25.7272 0.0428355 -0.0252046 0.0270885
423 3 10.0004 20.5413 21.0653 -0.107837 0.152191 -0.03276
430 3 20.5094 24.3076 22.3559 0.117712 0.000692646 0.0368574
305 2 15.3697 17.3768 29.6362 -0.00084202 -0.0132267 0.00714888
447 3 23.0857 28.6126 27.5022 -0.00388085 0.114464 0.085707
34 2 14.6331 20.0824 26.5808 -0.012753 -0.0188098 -0.0534899
324 3 -3.34046 16.1198 22.9722 -0.0894504 0.14558 -0.0530546
7 2 7.92749 18.799 10.9212 -0.0166071 -0.0203344 0.0113194
467 3 9.41721 25.0483 20.7473 -0.0428237 -0.138279 -0.0170354
291 2 -6.31552 28.2602 12.2093 -0.0144302 -0.00490342 0.00574779
313 1 24.5095 29.0637 23.5286 -0.0413712 -0.434381 -0.0277381
192 2 12.7792 26.0149 26.6602 -0.0342024 -0.0128346 -0.00984814
439 3 25.8276 27.9988 25.2033 0.156056 -0.0761252 -0.0345821
43 2 -4.43413 36.1454 15.4475 8.30463e-07 -0.00210026 -0.000429075
421 3 14.6667 35.1504 11.6048 0.061292 -0.0485428 0.0127219
379 3 22.2697 27.0801 24.2275 0.0233701 0.151113 0.0308223
16 2 15.1574 26.7267 16.2326 0.000800873 -0.00548635 0.00484101
258 1 28.7507 18.0049 24.2243 0.0395984 0.112225 -0.00275694
18 2 15.2731 21.3394 29.2237 0.0144454 0.0360558 0.048132
301 2 18.7447 18.206 19.5711 -0.00132153 0.00517315 -0.00255777
354 3 28.5247 15.7355 23.6774 -0.138224 -0.215319 -0.109723
39 2 7.51633 12.5699 16.0467 0.00573599 2.63726e-05 -0.00545649
241 2 13.7537 28.2933 21.0223 0.00747621 -0.000330819 0.000229217
413 3 21.0425 36.0808 23.2624 0.0985804 -0.0190971 0.253395
124 2 10.0977 21.479 13.1301 0.00878727 0.00416275 0.0112098
112 2 -2.82887 12.9857 10.83 -0.0278208 0.00904968 0.0168106
144 2 23.0591 23.9271 30.4197 -0.0173592 0.000702 0.028625
17 2 -5.59268 34.7547 11.4964 -0.000159434 0.00367943 0.00384347
111 2 -5.02582 17.518 11.3215 0.00623658 0.00155322 0.00426095
312 2 21.6784 35.893 29.1888 0.0043377 0.00128294 0.0063535
385 3 11.0264 35.2026 13.1116 0.0367283 0.194966 -0.0552913
21 2 26.5271 15.9482 18.0004 0.00437227 -0.00654848 0.00767886
359 3 5.44761 37.6081 12.2591 0.0427664 0.0210284 -0.00464171
157 2 -5.47055 37.0896 24.1745 0.00685057 -0.00213271 0.00114985
236 2 -1.01267 18.957 12.4331 -0.00578902 0.00428823 -0.00637166
399 3 14.4239 36.5721 15.0445 -0.0536247 0.0614273 0.0668454
162 2 -3.16606 29.1408 10.8911 0.0112935 0.00352276 -0.00204324
143 2 11.5247 27.9155 31.3951 0.00435068 -0.00160223 -0.00364526
235 2 11.4506 18.2236 31.0769 0.00216155 -0.0019386 0.000818588